Loading crystal17/1.0.2/intel/19.0
  Loading requirement: intel/19.0 ompi/4.0.1/intel/19.0
         128 PROCESSORS WORKING

         
 *******************************************************************************
 *                                                                             *
 *                               CRYSTAL17                                     *
 *                      public : 1.0.2 - March 1st, 2018                       *
 *                       HTTP://WWW.CRYSTAL.UNITO.IT                           *
 *                                                                             *
 *                              MAIN AUTHORS                                   *
 *                                                                             *
 *  R. DOVESI(1,11), V.R. SAUNDERS(2), C. ROETTI(1,11), R. ORLANDO(1,11),      *
 *  C.M. ZICOVICH-WILSON(1,3), F. PASCALE(4), B. CIVALLERI(1,11),              *
 *  K. DOLL(5), N.M. HARRISON(2,6), I.J. BUSH(7), Ph. D'ARCO(8),               *
 *  M. LLUNELL(9), M. CAUSA'(10), Y. NOEL(8), L. MASCHIO(1,11), A. ERBA(1,11)  *
 *  M. RE'RAT(14), S. CASASSA(1,11)                                            *
 *                                                                             *
 *        CONTRIBUTIONS TO THE CODE HAVE ALSO BEEN GIVEN BY                    *
 *                                                                             *
 *  M. FERRABONE(1,11), M. DE LA PIERRE(1,11), M. FERRERO(1,11),               *
 *  J. BAIMA(1,11), E. ALBANESE(1,11), M.F. PEINTINGER(12), R. BAST(13),       *
 *  B. KIRTMAN(15), V. LACIVITA(1,11), R. DEMICHELIS(1,16)                     *
 *  G. BRANDEBURG(17), S. SALUSTRO(1,11), G. SANSONE(1,11)                     *
 *  M.T. RUGGIERO(18)                                                          *
 *                                                                             *
 * (1) THEORETICAL CHEMISTRY GROUP - UNIVERSITA' DI TORINO - TORINO (ITALY)    *
 * (2) COMPUTATIONAL SCIENCE & ENGINEERING DEPARTMENT - STFC DARESBURY (UK)    *
 * (3) UNIVERSIDAD AUTONOMA DEL ESTADO DE MORELOS - CUERNAVACA (MEXICO)        *
 * (4) UNIVERSITE' DE LORRAINE - NANCY (FRANCE)                                *
 * (5) UNIVERSITAET STUTTGART- STUTTGART (GERMANY)                             *
 * (6) IMPERIAL COLLEGE - LONDON (UK)                                          *
 * (7) OXFORD E-RESEARCH CENTRE - OXFORD (UK)                                  *
 * (8) UPMC - SORBONNE UNIVERSITES - PARIS (FRANCE)                            *
 * (9) UNIVERSIDAD DE BARCELONA - BARCELONA (SPAIN)                            *
 *(10) UNIVERSITA' DI NAPOLI "FEDERICO II" - NAPOLI (ITALY)                    *
 *(11) NIS - NANOSTRUCTURED INTERFACES AND SURFACES - TORINO (ITALY)           *
 *(12) MPI FUER CHEMISCHE ENERGIEKONVERSION - MUELHEIM AN DER RUHR (GERMANY)   *
 *(13) UNIVERSITY OF TROMSO - TROMSO (NORWAY)                                  *
 *(14) UNIVERSITE' DE PAU ET DES PAYS DE L'ADOUR - PAU (FRANCE)                *
 *(15) UNIVERSITY OF CALIFORNIA SANTA BARBARA - SANTA BARBARA (USA)            *
 *(16) CURTIN UNIVERSITY - PERTH (AUSTRALIA)                                   *
 *(17) UNIVERSITY COLLEGE LONDON - LONDON (UK)                                 *
 *(18) CAMBRIDGE UNIVERSITY - CAMBRIDGE (UK)                                   *
 *                                                                             *
 *******************************************************************************
 EEEEEEEEEE STARTING  DATE 29 07 2022 TIME 11:42:50.7
 C:\users\rbnfritz\My Documents\tmp_p\newconn.mol                                

 CRYSTAL CALCULATION
 (INPUT ACCORDING TO THE INTERNATIONAL TABLES FOR X-RAY CRYSTALLOGRAPHY)
 CRYSTAL FAMILY                       :  MONOCLINIC  
 CRYSTAL CLASS  (GROTH - 1921)        :  MONOCLINIC SPHENOIDAL                

 SPACE GROUP (NONCENTROSYMMETRIC)     :  P 21            

 LATTICE PARAMETERS  (ANGSTROMS AND DEGREES) - CONVENTIONAL CELL
        A           B           C        ALPHA        BETA       GAMMA
     7.63132    13.50077    12.47913    90.00000   100.81148    90.00000


 NUMBER OF IRREDUCIBLE ATOMS IN THE CONVENTIONAL CELL:   54

 INPUT COORDINATES

 ATOM AT. N.              COORDINATES
   1   1     3.186300000000E-01  3.579800000000E-01  7.040600000000E-01
   2   1     5.208900000000E-01  3.819800000000E-01  2.099700000000E-01
   3   1     7.476900000000E-01  5.700700000000E-01  7.480900000000E-01
   4   1     1.244100000000E-01  6.836200000000E-01 -5.602000000000E-02
   5   1     5.831200000000E-01  7.014600000000E-01  8.916000000000E-01
   6   1     3.632000000000E-02  3.675500000000E-01  2.893000000000E-01
   7   1     8.665200000000E-01  2.761400000000E-01  8.576500000000E-01
   8   1     7.603400000000E-01  5.878600000000E-01  2.902100000000E-01
   9   1    -5.876000000000E-02 -1.628000000000E-02  4.561600000000E-01
  10   1     4.770100000000E-01 -8.108000000000E-02  5.157900000000E-01
  11   1     2.269000000000E-01  6.130200000000E-01  7.016000000000E-01
  12   1     2.498200000000E-01  5.710100000000E-01  2.247100000000E-01
  13   6     2.210400000000E-01  3.585500000000E-01  7.595500000000E-01
  14   6     5.789900000000E-01  4.152800000000E-01  1.433300000000E-01
  15   6     6.128300000000E-01  5.660700000000E-01  6.967000000000E-01
  16   6     1.978600000000E-01  6.124300000000E-01 -5.106000000000E-02
  17   6     7.015100000000E-01  6.746500000000E-01 -5.092000000000E-02
  18   6     1.460100000000E-01  3.593500000000E-01  2.432300000000E-01
  19   6     8.086400000000E-01  3.410300000000E-01  8.919200000000E-01
  20   6     7.010000000000E-01  6.123300000000E-01  3.600300000000E-01
  21   6     8.548500000000E-01 -5.881000000000E-02  5.016100000000E-01
  22   6     3.961900000000E-01  8.533200000000E-01  4.862700000000E-01
  23   6     1.251200000000E-01  6.526300000000E-01  6.421200000000E-01
  24   6     1.412900000000E-01  6.132000000000E-01  2.511200000000E-01
  25   8     2.751800000000E-01  3.974100000000E-01  8.538200000000E-01
  26   8     6.724000000000E-02  3.234600000000E-01  7.298600000000E-01
  27   8     4.740100000000E-01  4.227900000000E-01  5.006000000000E-02
  28   8     7.401100000000E-01  4.422900000000E-01  1.645500000000E-01
  29   8     4.869000000000E-01  5.242200000000E-01  7.311900000000E-01
  30   8     5.960400000000E-01  6.065600000000E-01  6.021000000000E-01
  31   8     3.330100000000E-01  6.072000000000E-01 -9.570000000000E-02
  32   8     1.376800000000E-01  5.420500000000E-01  6.900000000000E-04
  33   8     7.141400000000E-01  5.796800000000E-01 -3.775000000000E-02
  34   8     8.158300000000E-01  7.340400000000E-01 -1.980000000000E-03
  35   8     1.290300000000E-01  4.083800000000E-01  1.542300000000E-01
  36   8     2.780000000000E-01  3.043200000000E-01  2.800900000000E-01
  37   8    -8.278000000000E-02  3.924300000000E-01 -3.851000000000E-02
  38   8     6.453100000000E-01  3.592800000000E-01  8.607000000000E-01
  39   8     7.974300000000E-01  6.715900000000E-01  4.279100000000E-01
  40   8     5.479500000000E-01  5.805500000000E-01  3.669200000000E-01
  41   8     8.868900000000E-01  8.478100000000E-01  5.115100000000E-01
  42   8     7.354300000000E-01 -1.650000000000E-02  5.420400000000E-01
  43   8     4.820300000000E-01  7.703000000000E-01  4.914900000000E-01
  44   8     2.319200000000E-01  8.648900000000E-01  4.507800000000E-01
  45   8     1.702800000000E-01  6.763400000000E-01  5.510500000000E-01
  46   8    -2.369000000000E-02  6.707700000000E-01  6.679400000000E-01
  47   8     1.857400000000E-01  6.661200000000E-01  3.373600000000E-01
  48   8    -1.610000000000E-02  6.083100000000E-01  1.974400000000E-01
  49  30     5.054300000000E-01  4.828800000000E-01  8.943400000000E-01
  50  30     1.993200000000E-01  3.849900000000E-01  3.300000000000E-03
  51  30    -9.060000000000E-02  5.093100000000E-01  7.478000000000E-02
  52  30     7.429000000000E-01  7.342700000000E-01  5.746900000000E-01
  53  30     3.801400000000E-01  6.233900000000E-01  4.727600000000E-01
  54  30    -3.172000000000E-02  2.591100000000E-01  5.840800000000E-01

 *******************************************************************************

 << INFORMATION >>: FROM NOW ON, ALL COORDINATES REFER TO THE PRIMITIVE CELL

 *******************************************************************************

 LATTICE PARAMETERS  (ANGSTROMS AND DEGREES) - PRIMITIVE CELL
       A          B          C        ALPHA      BETA     GAMMA        VOLUME
    7.63132   13.50077   12.47913    90.00000 100.81148  90.00000   1262.886308

 COORDINATES OF THE EQUIVALENT ATOMS (FRACTIONAL UNITS)

 N. ATOM EQUIV AT. N.          X                  Y                  Z

   1   1   1    1 H     3.18630000000E-01  3.57980000000E-01 -2.95940000000E-01
   2   1   2    1 H    -3.18630000000E-01 -1.42020000000E-01  2.95940000000E-01

   3   2   1    1 H    -4.79110000000E-01  3.81980000000E-01  2.09970000000E-01
   4   2   2    1 H     4.79110000000E-01 -1.18020000000E-01 -2.09970000000E-01

   5   3   1    1 H    -2.52310000000E-01 -4.29930000000E-01 -2.51910000000E-01
   6   3   2    1 H     2.52310000000E-01  7.00700000000E-02  2.51910000000E-01

   7   4   1    1 H     1.24410000000E-01 -3.16380000000E-01 -5.60200000000E-02
   8   4   2    1 H    -1.24410000000E-01  1.83620000000E-01  5.60200000000E-02

   9   5   1    1 H    -4.16880000000E-01 -2.98540000000E-01 -1.08400000000E-01
  10   5   2    1 H     4.16880000000E-01  2.01460000000E-01  1.08400000000E-01

  11   6   1    1 H     3.63200000000E-02  3.67550000000E-01  2.89300000000E-01
  12   6   2    1 H    -3.63200000000E-02 -1.32450000000E-01 -2.89300000000E-01

  13   7   1    1 H    -1.33480000000E-01  2.76140000000E-01 -1.42350000000E-01
  14   7   2    1 H     1.33480000000E-01 -2.23860000000E-01  1.42350000000E-01

  15   8   1    1 H    -2.39660000000E-01 -4.12140000000E-01  2.90210000000E-01
  16   8   2    1 H     2.39660000000E-01  8.78600000000E-02 -2.90210000000E-01

  17   9   1    1 H    -5.87600000000E-02 -1.62800000000E-02  4.56160000000E-01
  18   9   2    1 H     5.87600000000E-02  4.83720000000E-01 -4.56160000000E-01

  19  10   1    1 H     4.77010000000E-01 -8.10800000000E-02 -4.84210000000E-01
  20  10   2    1 H    -4.77010000000E-01  4.18920000000E-01  4.84210000000E-01

  21  11   1    1 H     2.26900000000E-01 -3.86980000000E-01 -2.98400000000E-01
  22  11   2    1 H    -2.26900000000E-01  1.13020000000E-01  2.98400000000E-01

  23  12   1    1 H     2.49820000000E-01 -4.28990000000E-01  2.24710000000E-01
  24  12   2    1 H    -2.49820000000E-01  7.10100000000E-02 -2.24710000000E-01

  25  13   1    6 C     2.21040000000E-01  3.58550000000E-01 -2.40450000000E-01
  26  13   2    6 C    -2.21040000000E-01 -1.41450000000E-01  2.40450000000E-01

  27  14   1    6 C    -4.21010000000E-01  4.15280000000E-01  1.43330000000E-01
  28  14   2    6 C     4.21010000000E-01 -8.47200000000E-02 -1.43330000000E-01

  29  15   1    6 C    -3.87170000000E-01 -4.33930000000E-01 -3.03300000000E-01
  30  15   2    6 C     3.87170000000E-01  6.60700000000E-02  3.03300000000E-01

  31  16   1    6 C     1.97860000000E-01 -3.87570000000E-01 -5.10600000000E-02
  32  16   2    6 C    -1.97860000000E-01  1.12430000000E-01  5.10600000000E-02

  33  17   1    6 C    -2.98490000000E-01 -3.25350000000E-01 -5.09200000000E-02
  34  17   2    6 C     2.98490000000E-01  1.74650000000E-01  5.09200000000E-02

  35  18   1    6 C     1.46010000000E-01  3.59350000000E-01  2.43230000000E-01
  36  18   2    6 C    -1.46010000000E-01 -1.40650000000E-01 -2.43230000000E-01

  37  19   1    6 C    -1.91360000000E-01  3.41030000000E-01 -1.08080000000E-01
  38  19   2    6 C     1.91360000000E-01 -1.58970000000E-01  1.08080000000E-01

  39  20   1    6 C    -2.99000000000E-01 -3.87670000000E-01  3.60030000000E-01
  40  20   2    6 C     2.99000000000E-01  1.12330000000E-01 -3.60030000000E-01

  41  21   1    6 C    -1.45150000000E-01 -5.88100000000E-02 -4.98390000000E-01
  42  21   2    6 C     1.45150000000E-01  4.41190000000E-01  4.98390000000E-01

  43  22   1    6 C     3.96190000000E-01 -1.46680000000E-01  4.86270000000E-01
  44  22   2    6 C    -3.96190000000E-01  3.53320000000E-01 -4.86270000000E-01

  45  23   1    6 C     1.25120000000E-01 -3.47370000000E-01 -3.57880000000E-01
  46  23   2    6 C    -1.25120000000E-01  1.52630000000E-01  3.57880000000E-01

  47  24   1    6 C     1.41290000000E-01 -3.86800000000E-01  2.51120000000E-01
  48  24   2    6 C    -1.41290000000E-01  1.13200000000E-01 -2.51120000000E-01

  49  25   1    8 O     2.75180000000E-01  3.97410000000E-01 -1.46180000000E-01
  50  25   2    8 O    -2.75180000000E-01 -1.02590000000E-01  1.46180000000E-01

  51  26   1    8 O     6.72400000000E-02  3.23460000000E-01 -2.70140000000E-01
  52  26   2    8 O    -6.72400000000E-02 -1.76540000000E-01  2.70140000000E-01

  53  27   1    8 O     4.74010000000E-01  4.22790000000E-01  5.00600000000E-02
  54  27   2    8 O    -4.74010000000E-01 -7.72100000000E-02 -5.00600000000E-02

  55  28   1    8 O    -2.59890000000E-01  4.42290000000E-01  1.64550000000E-01
  56  28   2    8 O     2.59890000000E-01 -5.77100000000E-02 -1.64550000000E-01

  57  29   1    8 O     4.86900000000E-01 -4.75780000000E-01 -2.68810000000E-01
  58  29   2    8 O    -4.86900000000E-01  2.42200000000E-02  2.68810000000E-01

  59  30   1    8 O    -4.03960000000E-01 -3.93440000000E-01 -3.97900000000E-01
  60  30   2    8 O     4.03960000000E-01  1.06560000000E-01  3.97900000000E-01

  61  31   1    8 O     3.33010000000E-01 -3.92800000000E-01 -9.57000000000E-02
  62  31   2    8 O    -3.33010000000E-01  1.07200000000E-01  9.57000000000E-02

  63  32   1    8 O     1.37680000000E-01 -4.57950000000E-01  6.90000000000E-04
  64  32   2    8 O    -1.37680000000E-01  4.20500000000E-02 -6.90000000000E-04

  65  33   1    8 O    -2.85860000000E-01 -4.20320000000E-01 -3.77500000000E-02
  66  33   2    8 O     2.85860000000E-01  7.96800000000E-02  3.77500000000E-02

  67  34   1    8 O    -1.84170000000E-01 -2.65960000000E-01 -1.98000000000E-03
  68  34   2    8 O     1.84170000000E-01  2.34040000000E-01  1.98000000000E-03

  69  35   1    8 O     1.29030000000E-01  4.08380000000E-01  1.54230000000E-01
  70  35   2    8 O    -1.29030000000E-01 -9.16200000000E-02 -1.54230000000E-01

  71  36   1    8 O     2.78000000000E-01  3.04320000000E-01  2.80090000000E-01
  72  36   2    8 O    -2.78000000000E-01 -1.95680000000E-01 -2.80090000000E-01

  73  37   1    8 O    -8.27800000000E-02  3.92430000000E-01 -3.85100000000E-02
  74  37   2    8 O     8.27800000000E-02 -1.07570000000E-01  3.85100000000E-02

  75  38   1    8 O    -3.54690000000E-01  3.59280000000E-01 -1.39300000000E-01
  76  38   2    8 O     3.54690000000E-01 -1.40720000000E-01  1.39300000000E-01

  77  39   1    8 O    -2.02570000000E-01 -3.28410000000E-01  4.27910000000E-01
  78  39   2    8 O     2.02570000000E-01  1.71590000000E-01 -4.27910000000E-01

  79  40   1    8 O    -4.52050000000E-01 -4.19450000000E-01  3.66920000000E-01
  80  40   2    8 O     4.52050000000E-01  8.05500000000E-02 -3.66920000000E-01

  81  41   1    8 O    -1.13110000000E-01 -1.52190000000E-01 -4.88490000000E-01
  82  41   2    8 O     1.13110000000E-01  3.47810000000E-01  4.88490000000E-01

  83  42   1    8 O    -2.64570000000E-01 -1.65000000000E-02 -4.57960000000E-01
  84  42   2    8 O     2.64570000000E-01  4.83500000000E-01  4.57960000000E-01

  85  43   1    8 O     4.82030000000E-01 -2.29700000000E-01  4.91490000000E-01
  86  43   2    8 O    -4.82030000000E-01  2.70300000000E-01 -4.91490000000E-01

  87  44   1    8 O     2.31920000000E-01 -1.35110000000E-01  4.50780000000E-01
  88  44   2    8 O    -2.31920000000E-01  3.64890000000E-01 -4.50780000000E-01

  89  45   1    8 O     1.70280000000E-01 -3.23660000000E-01 -4.48950000000E-01
  90  45   2    8 O    -1.70280000000E-01  1.76340000000E-01  4.48950000000E-01

  91  46   1    8 O    -2.36900000000E-02 -3.29230000000E-01 -3.32060000000E-01
  92  46   2    8 O     2.36900000000E-02  1.70770000000E-01  3.32060000000E-01

  93  47   1    8 O     1.85740000000E-01 -3.33880000000E-01  3.37360000000E-01
  94  47   2    8 O    -1.85740000000E-01  1.66120000000E-01 -3.37360000000E-01

  95  48   1    8 O    -1.61000000000E-02 -3.91690000000E-01  1.97440000000E-01
  96  48   2    8 O     1.61000000000E-02  1.08310000000E-01 -1.97440000000E-01

  97  49   1   30 ZN   -4.94570000000E-01  4.82880000000E-01 -1.05660000000E-01
  98  49   2   30 ZN    4.94570000000E-01 -1.71200000000E-02  1.05660000000E-01

  99  50   1   30 ZN    1.99320000000E-01  3.84990000000E-01  3.30000000000E-03
 100  50   2   30 ZN   -1.99320000000E-01 -1.15010000000E-01 -3.30000000000E-03

 101  51   1   30 ZN   -9.06000000000E-02 -4.90690000000E-01  7.47800000000E-02
 102  51   2   30 ZN    9.06000000000E-02  9.31000000000E-03 -7.47800000000E-02

 103  52   1   30 ZN   -2.57100000000E-01 -2.65730000000E-01 -4.25310000000E-01
 104  52   2   30 ZN    2.57100000000E-01  2.34270000000E-01  4.25310000000E-01

 105  53   1   30 ZN    3.80140000000E-01 -3.76610000000E-01  4.72760000000E-01
 106  53   2   30 ZN   -3.80140000000E-01  1.23390000000E-01 -4.72760000000E-01

 107  54   1   30 ZN   -3.17200000000E-02  2.59110000000E-01 -4.15920000000E-01
 108  54   2   30 ZN    3.17200000000E-02 -2.40890000000E-01  4.15920000000E-01

 NUMBER OF SYMMETRY OPERATORS         :    2
 *******************************************************************************
 * GEOMETRY EDITING - INPUT COORDINATES ARE GIVEN IN ANGSTROM         
 *******************************************************************************

 GEOMETRY NOW FULLY CONSISTENT WITH THE GROUP

 GCALCO - MAX INDICES DIRECT LATTICE VECTOR    21    11    13
 NO.OF VECTORS CREATED 6999 STARS 1894 RMAX   242.09161 BOHR

 GEOMETRY FOR WAVE FUNCTION - DIMENSIONALITY OF THE SYSTEM    3
 (NON PERIODIC DIRECTION: LATTICE PARAMETER FORMALLY SET TO 500)
 *******************************************************************************
 LATTICE PARAMETERS (ANGSTROMS AND DEGREES) - BOHR = 0.5291772083 ANGSTROM
 PRIMITIVE CELL - CENTRING CODE 1/0 VOLUME=  1262.886308 - DENSITY  2.429 g/cm^3
         A              B              C           ALPHA      BETA       GAMMA 
     7.63131900    13.50076610    12.47913090    90.000000 100.811484  90.000000
 *******************************************************************************
 ATOMS IN THE ASYMMETRIC UNIT   54 - ATOMS IN THE UNIT CELL:  108
     ATOM                 X/A                 Y/B                 Z/C    
 *******************************************************************************
      1 T   1 H     3.186300000000E-01  3.579800000000E-01 -2.959400000000E-01
      2 F   1 H    -3.186300000000E-01 -1.420200000000E-01  2.959400000000E-01
      3 T   1 H    -4.791100000000E-01  3.819800000000E-01  2.099700000000E-01
      4 F   1 H     4.791100000000E-01 -1.180200000000E-01 -2.099700000000E-01
      5 T   1 H    -2.523100000000E-01 -4.299300000000E-01 -2.519100000000E-01
      6 F   1 H     2.523100000000E-01  7.007000000000E-02  2.519100000000E-01
      7 T   1 H     1.244100000000E-01 -3.163800000000E-01 -5.602000000000E-02
      8 F   1 H    -1.244100000000E-01  1.836200000000E-01  5.602000000000E-02
      9 T   1 H    -4.168800000000E-01 -2.985400000000E-01 -1.084000000000E-01
     10 F   1 H     4.168800000000E-01  2.014600000000E-01  1.084000000000E-01
     11 T   1 H     3.632000000000E-02  3.675500000000E-01  2.893000000000E-01
     12 F   1 H    -3.632000000000E-02 -1.324500000000E-01 -2.893000000000E-01
     13 T   1 H    -1.334800000000E-01  2.761400000000E-01 -1.423500000000E-01
     14 F   1 H     1.334800000000E-01 -2.238600000000E-01  1.423500000000E-01
     15 T   1 H    -2.396600000000E-01 -4.121400000000E-01  2.902100000000E-01
     16 F   1 H     2.396600000000E-01  8.786000000000E-02 -2.902100000000E-01
     17 T   1 H    -5.876000000000E-02 -1.628000000000E-02  4.561600000000E-01
     18 F   1 H     5.876000000000E-02  4.837200000000E-01 -4.561600000000E-01
     19 T   1 H     4.770100000000E-01 -8.108000000000E-02 -4.842100000000E-01
     20 F   1 H    -4.770100000000E-01  4.189200000000E-01  4.842100000000E-01
     21 T   1 H     2.269000000000E-01 -3.869800000000E-01 -2.984000000000E-01
     22 F   1 H    -2.269000000000E-01  1.130200000000E-01  2.984000000000E-01
     23 T   1 H     2.498200000000E-01 -4.289900000000E-01  2.247100000000E-01
     24 F   1 H    -2.498200000000E-01  7.101000000000E-02 -2.247100000000E-01
     25 T   6 C     2.210400000000E-01  3.585500000000E-01 -2.404500000000E-01
     26 F   6 C    -2.210400000000E-01 -1.414500000000E-01  2.404500000000E-01
     27 T   6 C    -4.210100000000E-01  4.152800000000E-01  1.433300000000E-01
     28 F   6 C     4.210100000000E-01 -8.472000000000E-02 -1.433300000000E-01
     29 T   6 C    -3.871700000000E-01 -4.339300000000E-01 -3.033000000000E-01
     30 F   6 C     3.871700000000E-01  6.607000000000E-02  3.033000000000E-01
     31 T   6 C     1.978600000000E-01 -3.875700000000E-01 -5.106000000000E-02
     32 F   6 C    -1.978600000000E-01  1.124300000000E-01  5.106000000000E-02
     33 T   6 C    -2.984900000000E-01 -3.253500000000E-01 -5.092000000000E-02
     34 F   6 C     2.984900000000E-01  1.746500000000E-01  5.092000000000E-02
     35 T   6 C     1.460100000000E-01  3.593500000000E-01  2.432300000000E-01
     36 F   6 C    -1.460100000000E-01 -1.406500000000E-01 -2.432300000000E-01
     37 T   6 C    -1.913600000000E-01  3.410300000000E-01 -1.080800000000E-01
     38 F   6 C     1.913600000000E-01 -1.589700000000E-01  1.080800000000E-01
     39 T   6 C    -2.990000000000E-01 -3.876700000000E-01  3.600300000000E-01
     40 F   6 C     2.990000000000E-01  1.123300000000E-01 -3.600300000000E-01
     41 T   6 C    -1.451500000000E-01 -5.881000000000E-02 -4.983900000000E-01
     42 F   6 C     1.451500000000E-01  4.411900000000E-01  4.983900000000E-01
     43 T   6 C     3.961900000000E-01 -1.466800000000E-01  4.862700000000E-01
     44 F   6 C    -3.961900000000E-01  3.533200000000E-01 -4.862700000000E-01
     45 T   6 C     1.251200000000E-01 -3.473700000000E-01 -3.578800000000E-01
     46 F   6 C    -1.251200000000E-01  1.526300000000E-01  3.578800000000E-01
     47 T   6 C     1.412900000000E-01 -3.868000000000E-01  2.511200000000E-01
     48 F   6 C    -1.412900000000E-01  1.132000000000E-01 -2.511200000000E-01
     49 T   8 O     2.751800000000E-01  3.974100000000E-01 -1.461800000000E-01
     50 F   8 O    -2.751800000000E-01 -1.025900000000E-01  1.461800000000E-01
     51 T   8 O     6.724000000000E-02  3.234600000000E-01 -2.701400000000E-01
     52 F   8 O    -6.724000000000E-02 -1.765400000000E-01  2.701400000000E-01
     53 T   8 O     4.740100000000E-01  4.227900000000E-01  5.006000000000E-02
     54 F   8 O    -4.740100000000E-01 -7.721000000000E-02 -5.006000000000E-02
     55 T   8 O    -2.598900000000E-01  4.422900000000E-01  1.645500000000E-01
     56 F   8 O     2.598900000000E-01 -5.771000000000E-02 -1.645500000000E-01
     57 T   8 O     4.869000000000E-01 -4.757800000000E-01 -2.688100000000E-01
     58 F   8 O    -4.869000000000E-01  2.422000000000E-02  2.688100000000E-01
     59 T   8 O    -4.039600000000E-01 -3.934400000000E-01 -3.979000000000E-01
     60 F   8 O     4.039600000000E-01  1.065600000000E-01  3.979000000000E-01
     61 T   8 O     3.330100000000E-01 -3.928000000000E-01 -9.570000000000E-02
     62 F   8 O    -3.330100000000E-01  1.072000000000E-01  9.570000000000E-02
     63 T   8 O     1.376800000000E-01 -4.579500000000E-01  6.900000000000E-04
     64 F   8 O    -1.376800000000E-01  4.205000000000E-02 -6.900000000000E-04
     65 T   8 O    -2.858600000000E-01 -4.203200000000E-01 -3.775000000000E-02
     66 F   8 O     2.858600000000E-01  7.968000000000E-02  3.775000000000E-02
     67 T   8 O    -1.841700000000E-01 -2.659600000000E-01 -1.980000000000E-03
     68 F   8 O     1.841700000000E-01  2.340400000000E-01  1.980000000000E-03
     69 T   8 O     1.290300000000E-01  4.083800000000E-01  1.542300000000E-01
     70 F   8 O    -1.290300000000E-01 -9.162000000000E-02 -1.542300000000E-01
     71 T   8 O     2.780000000000E-01  3.043200000000E-01  2.800900000000E-01
     72 F   8 O    -2.780000000000E-01 -1.956800000000E-01 -2.800900000000E-01
     73 T   8 O    -8.278000000000E-02  3.924300000000E-01 -3.851000000000E-02
     74 F   8 O     8.278000000000E-02 -1.075700000000E-01  3.851000000000E-02
     75 T   8 O    -3.546900000000E-01  3.592800000000E-01 -1.393000000000E-01
     76 F   8 O     3.546900000000E-01 -1.407200000000E-01  1.393000000000E-01
     77 T   8 O    -2.025700000000E-01 -3.284100000000E-01  4.279100000000E-01
     78 F   8 O     2.025700000000E-01  1.715900000000E-01 -4.279100000000E-01
     79 T   8 O    -4.520500000000E-01 -4.194500000000E-01  3.669200000000E-01
     80 F   8 O     4.520500000000E-01  8.055000000000E-02 -3.669200000000E-01
     81 T   8 O    -1.131100000000E-01 -1.521900000000E-01 -4.884900000000E-01
     82 F   8 O     1.131100000000E-01  3.478100000000E-01  4.884900000000E-01
     83 T   8 O    -2.645700000000E-01 -1.650000000000E-02 -4.579600000000E-01
     84 F   8 O     2.645700000000E-01  4.835000000000E-01  4.579600000000E-01
     85 T   8 O     4.820300000000E-01 -2.297000000000E-01  4.914900000000E-01
     86 F   8 O    -4.820300000000E-01  2.703000000000E-01 -4.914900000000E-01
     87 T   8 O     2.319200000000E-01 -1.351100000000E-01  4.507800000000E-01
     88 F   8 O    -2.319200000000E-01  3.648900000000E-01 -4.507800000000E-01
     89 T   8 O     1.702800000000E-01 -3.236600000000E-01 -4.489500000000E-01
     90 F   8 O    -1.702800000000E-01  1.763400000000E-01  4.489500000000E-01
     91 T   8 O    -2.369000000000E-02 -3.292300000000E-01 -3.320600000000E-01
     92 F   8 O     2.369000000000E-02  1.707700000000E-01  3.320600000000E-01
     93 T   8 O     1.857400000000E-01 -3.338800000000E-01  3.373600000000E-01
     94 F   8 O    -1.857400000000E-01  1.661200000000E-01 -3.373600000000E-01
     95 T   8 O    -1.610000000000E-02 -3.916900000000E-01  1.974400000000E-01
     96 F   8 O     1.610000000000E-02  1.083100000000E-01 -1.974400000000E-01
     97 T  30 ZN   -4.945700000000E-01  4.828800000000E-01 -1.056600000000E-01
     98 F  30 ZN    4.945700000000E-01 -1.712000000000E-02  1.056600000000E-01
     99 T  30 ZN    1.993200000000E-01  3.849900000000E-01  3.300000000000E-03
    100 F  30 ZN   -1.993200000000E-01 -1.150100000000E-01 -3.300000000000E-03
    101 T  30 ZN   -9.060000000000E-02 -4.906900000000E-01  7.478000000000E-02
    102 F  30 ZN    9.060000000000E-02  9.310000000000E-03 -7.478000000000E-02
    103 T  30 ZN   -2.571000000000E-01 -2.657300000000E-01 -4.253100000000E-01
    104 F  30 ZN    2.571000000000E-01  2.342700000000E-01  4.253100000000E-01
    105 T  30 ZN    3.801400000000E-01 -3.766100000000E-01  4.727600000000E-01
    106 F  30 ZN   -3.801400000000E-01  1.233900000000E-01 -4.727600000000E-01
    107 T  30 ZN   -3.172000000000E-02  2.591100000000E-01 -4.159200000000E-01
    108 F  30 ZN    3.172000000000E-02 -2.408900000000E-01  4.159200000000E-01

 T = ATOM BELONGING TO THE ASYMMETRIC UNIT

 ****    2 SYMMOPS - TRANSLATORS IN FRACTIONAL UNITS
 **** MATRICES AND TRANSLATORS IN THE CRYSTALLOGRAPHIC REFERENCE FRAME
   V INV                    ROTATION MATRICES                   TRANSLATORS
   1   1  1.00  0.00  0.00  0.00  1.00  0.00  0.00  0.00  1.00  0.00  0.00  0.00
   2   2 -1.00  0.00 -0.00  0.00  1.00 -0.00  0.00  0.00 -1.00  0.00  0.50  0.00

 DIRECT LATTICE VECTORS CARTESIAN COMPONENTS (ANGSTROM)
          X                    Y                    Z
   0.763131900000E+01   0.467283519331E-15   0.000000000000E+00
   0.000000000000E+00   0.135007661000E+02   0.000000000000E+00
  -0.234081283943E+01   0.764126385641E-15   0.122576222519E+02


 CARTESIAN COORDINATES - PRIMITIVE CELL
 *******************************************************************************
 *      ATOM          X(ANGSTROM)         Y(ANGSTROM)         Z(ANGSTROM)
 *******************************************************************************
    1     1 H     3.124307324670E+00  4.833004248478E+00 -3.627520729225E+00
    2     1 H    -3.124307324670E+00 -1.917378801522E+00  3.627520729225E+00
    3     1 H     3.483577282016E+00  5.157022634878E+00  2.573732944230E+00
    4     1 H    -3.483577282016E+00 -1.593360415122E+00 -2.573732944230E+00
    5     1 H    -1.335783934510E+00 -5.804384369373E+00 -3.087817621474E+00
    6     1 H     1.335783934510E+00  9.459986806270E-01  3.087817621474E+00
    7     1 H     1.080544732055E+00 -4.271372378718E+00 -6.866719985511E-01
    8     1 H    -1.080544732055E+00  2.479010671282E+00  6.866719985511E-01
    9     1 H    -2.927600152926E+00 -4.030518711494E+00 -1.328726252105E+00
   10     1 H     2.927600152926E+00  2.719864338506E+00  1.328726252105E+00
   11     1 H    -4.000276483660E-01  4.962206580055E+00  3.546130117473E+00
   12     1 H     4.000276483660E-01 -1.788176469945E+00 -3.546130117473E+00
   13     1 H    -6.854137524277E-01  3.728101550854E+00 -1.744872527557E+00
   14     1 H     6.854137524277E-01 -3.022281499146E+00  1.744872527557E+00
   15     1 H    -2.508249205670E+00 -5.564205740454E+00  3.557284553722E+00
   16     1 H     2.508249205670E+00  1.186177309546E+00 -3.557284553722E+00
   17     1 H    -1.516201489273E+00 -2.197924721080E-01  5.591436966424E+00
   18     1 H     1.516201489273E+00  6.530590577892E+00 -5.591436966424E+00
   19     1 H    -2.857658538831E+00 -1.094642115388E+00 -5.935263270589E+00
   20     1 H     2.857658538831E+00  5.655740934612E+00  5.935263270589E+00
   21     1 H     2.430044832385E+00 -5.224526465378E+00 -3.657674479965E+00
   22     1 H    -2.430044832385E+00  1.525856584622E+00  3.657674479965E+00
   23     1 H     1.380452059433E+00 -5.791693649239E+00  2.754410296223E+00
   24     1 H    -1.380452059433E+00  9.586894007610E-01 -2.754410296223E+00
   25     6 C     2.249675199000E+00  4.840699685155E+00 -2.947345270468E+00
   26     6 C    -2.249675199000E+00 -1.909683364845E+00  2.947345270468E+00
   27     6 C    -3.548370316465E+00  5.606598146008E+00  1.756884997364E+00
   28     6 C     3.548370316465E+00 -1.143784903992E+00 -1.756884997364E+00
   29     6 C    -2.244649243032E+00 -5.858387433773E+00 -3.717736828999E+00
   30     6 C     2.244649243032E+00  8.919956162270E-01  3.717736828999E+00
   31     6 C     1.629454680921E+00 -5.232491917377E+00 -6.258741921817E-01
   32     6 C    -1.629454680921E+00  1.517891132623E+00  6.258741921817E-01
   33     6 C    -2.158678218526E+00 -4.392474250635E+00 -6.241581250664E-01
   34     6 C     2.158678218526E+00  2.357908799365E+00  6.241581250664E-01
   35     6 C     5.448929802564E-01  4.851500298035E+00  2.981421460328E+00
   36     6 C    -5.448929802564E-01 -1.898882751965E+00 -2.981421460328E+00
   37     6 C    -1.207334152155E+00  4.604166263083E+00 -1.324803812985E+00
   38     6 C     1.207334152155E+00 -2.146216786917E+00  1.324803812985E+00
   39     6 C    -3.124527227579E+00 -5.233841993987E+00  4.413111739349E+00
   40     6 C     3.124527227579E+00  1.516541056013E+00 -4.413111739349E+00
   41     6 C     5.895175819165E-02 -7.939800543410E-01 -6.109076354121E+00
   42     6 C    -5.895175819165E-02  5.956402995659E+00  6.109076354121E+00
   43     6 C     1.885185215182E+00 -1.980292371548E+00  5.960513972428E+00
   44     6 C    -1.885185215182E+00  4.770090678452E+00 -5.960513972428E+00
   45     6 C     1.792560732254E+00 -4.689761120157E+00 -4.386757851508E+00
   46     6 C    -1.792560732254E+00  2.060621929843E+00  4.386757851508E+00
   47     6 C     4.904041412733E-01 -5.222096327480E+00  3.078134099895E+00
   48     6 C    -4.904041412733E-01  1.528286722520E+00 -3.078134099895E+00
   49     8 O     2.442166383287E+00  5.365339455801E+00 -1.791819220782E+00
   50     8 O    -2.442166383287E+00 -1.385043594199E+00  1.791819220782E+00
   51     8 O     1.145477070003E+00  4.366957802706E+00 -3.311274075126E+00
   52     8 O    -1.145477070003E+00 -2.383425247294E+00  3.311274075126E+00
   53     8 O     3.500140428448E+00  5.707988899419E+00  6.136165699298E-01
   54     8 O    -3.500140428448E+00 -1.042394150581E+00 -6.136165699298E-01
   55     8 O    -2.368484247638E+00  5.971253838369E+00  2.016991741549E+00
   56     8 O     2.368484247638E+00 -7.791292116310E-01 -2.016991741549E+00
   57     8 O    -3.286395879534E+00 -6.423394495058E+00 -3.294971437531E+00
   58     8 O     3.286395879534E+00  3.269885549420E-01  3.294971437531E+00
   59     8 O    -2.151338194432E+00 -5.311741414384E+00 -4.877307894028E+00
   60     8 O     2.151338194432E+00  1.438641635616E+00  4.877307894028E+00
   61     8 O     2.765321328923E+00 -5.303100924080E+00 -1.173054449506E+00
   62     8 O    -2.765321328923E+00  1.447282125920E+00  1.173054449506E+00
   63     8 O     1.049064839061E+00 -6.182675835495E+00  8.457759353806E-03
   64     8 O    -1.049064839061E+00  5.677072145050E-01 -8.457759353806E-03
   65     8 O    -2.093123164652E+00 -5.674642007152E+00 -4.627252400090E-01
   66     8 O     2.093123164652E+00  1.075741042848E+00  4.627252400090E-01
   67     8 O    -1.400825210808E+00 -3.590663751956E+00 -2.427009205875E-02
   68     8 O     1.400825210808E+00  3.159719298044E+00  2.427009205875E-02
   69     8 O     6.236455263453E-01  5.513442859918E+00  1.890493079910E+00
   70     8 O    -6.236455263453E-01 -1.236940190082E+00 -1.890493079910E+00
   71     8 O     1.465868413805E+00  4.108553139552E+00  3.433237416533E+00
   72     8 O    -1.465868413805E+00 -2.641829910448E+00 -3.433237416533E+00
   73     8 O    -5.415758843737E-01  5.298105640623E+00 -4.720410329204E-01
   74     8 O     5.415758843737E-01 -1.452277409377E+00  4.720410329204E-01
   75     8 O    -2.380677307578E+00  4.850555244408E+00 -1.707486779689E+00
   76     8 O     2.380677307578E+00 -1.899827805592E+00  1.707486779689E+00
   77     8 O    -2.547533511949E+00 -4.433786594901E+00  5.245159137808E+00
   78     8 O     2.547533511949E+00  2.316596455099E+00 -5.245159137808E+00
   79     8 O     3.322690199008E+00 -5.662896340645E+00  4.497566756665E+00
   80     8 O    -3.322690199008E+00  1.087486709355E+00 -4.497566756665E+00
   81     8 O     2.802851718413E-01 -2.054681592759E+00 -5.987725893827E+00
   82     8 O    -2.802851718413E-01  4.695701457241E+00  5.987725893827E+00
   83     8 O    -9.470194198864E-01 -2.227626406500E-01 -5.613500686477E+00
   84     8 O     9.470194198864E-01  6.527620409350E+00  5.613500686477E+00
   85     8 O     2.528038595120E+00 -3.101125973170E+00  6.024498760583E+00
   86     8 O    -2.528038595120E+00  3.649257076830E+00 -6.024498760583E+00
   87     8 O     7.146638907234E-01 -1.824088507771E+00  5.525490958709E+00
   88     8 O    -7.146638907234E-01  4.926294542229E+00 -5.525490958709E+00
   89     8 O     2.350368923580E+00 -4.369657955926E+00 -5.503059509988E+00
   90     8 O    -2.350368923580E+00  2.380725094074E+00  5.503059509988E+00
   91     8 O     5.965043643499E-01 -4.444857223103E+00 -4.070266044964E+00
   92     8 O    -5.965043643499E-01  2.305525826897E+00  4.070266044964E+00
   93     8 O     6.277445715512E-01 -4.507635785468E+00  4.135231442899E+00
   94     8 O    -6.277445715512E-01  2.242747264532E+00 -4.135231442899E+00
   95     8 O    -5.850343229163E-01 -5.288115073709E+00  2.420144937414E+00
   96     8 O     5.850343229163E-01  1.462267976291E+00 -2.420144937414E+00
   97    30 ZN   -3.526891153216E+00  6.519249934368E+00 -1.295140367135E+00
   98    30 ZN    3.526891153216E+00 -2.311331156320E-01  1.295140367135E+00
   99    30 ZN    1.513349820710E+00  5.197659940839E+00  4.045015343125E-02
  100    30 ZN   -1.513349820710E+00 -1.552723109161E+00 -4.045015343125E-02
  101    30 ZN   -8.664434855323E-01 -6.624690917609E+00  9.166249919966E-01
  102    30 ZN    8.664434855323E-01  1.256921323910E-01 -9.166249919966E-01
  103    30 ZN   -9.664410061636E-01 -3.587558575753E+00 -5.213289319953E+00
  104    30 ZN    9.664410061636E-01  3.162824474247E+00  5.213289319953E+00
  105    30 ZN    1.794326926693E+00 -5.084523520921E+00  5.794913495805E+00
  106    30 ZN   -1.794326926693E+00  1.665859529079E+00 -5.794913495805E+00
  107    30 ZN    7.315254374942E-01  3.498183504171E+00 -5.098190247007E+00
  108    30 ZN   -7.315254374942E-01 -3.252199545829E+00  5.098190247007E+00

 *******************************************************************************
 STARTING BASIS SET HANDLING 
 *******************************************************************************

 Loading internal basis set: POB-DZVPP           

 Please cite in your publication:
 Peintinger, M. F., Oliveira, D. V. and Bredow, T. (2013), Generally applicable 
 solid-state Gaussian basis sets, in preparation                                
                                                                                
                    

 *******************************************************************************
 LOCAL ATOMIC FUNCTIONS BASIS SET
 *******************************************************************************
   ATOM   X(AU)   Y(AU)   Z(AU)  N. TYPE  EXPONENT  S COEF   P COEF   D/F/G COEF
 *******************************************************************************
   1 H    5.904   9.133  -6.855
                                  1 S  
                                         2.263E+01 1.441E-02 0.000E+00 0.000E+00
                                         3.236E+00 1.072E-01 0.000E+00 0.000E+00
                                         7.304E-01 3.846E-01 0.000E+00 0.000E+00
                                  2 S  
                                         1.417E-01 1.000E+00 0.000E+00 0.000E+00
                           3-     5 P  
                                         3.944E-01 0.000E+00 1.000E+00 0.000E+00
                           6-     8 P  
                                         1.006E-01 0.000E+00 1.000E+00 0.000E+00
   2 H   -5.904  -3.623   6.855
   3 H    6.583   9.745   4.864
   4 H   -6.583  -3.011  -4.864
   5 H   -2.524 -10.969  -5.835
   6 H    2.524   1.788   5.835
   7 H    2.042  -8.072  -1.298
   8 H   -2.042   4.685   1.298
   9 H   -5.532  -7.617  -2.511
  10 H    5.532   5.140   2.511
  11 H   -0.756   9.377   6.701
  12 H    0.756  -3.379  -6.701
  13 H   -1.295   7.045  -3.297
  14 H    1.295  -5.711   3.297
  15 H   -4.740 -10.515   6.722
  16 H    4.740   2.242  -6.722
  17 H   -2.865  -0.415  10.566
  18 H    2.865  12.341 -10.566
  19 H   -5.400  -2.069 -11.216
  20 H    5.400  10.688  11.216
  21 H    4.592  -9.873  -6.912
  22 H   -4.592   2.883   6.912
  23 H    2.609 -10.945   5.205
  24 H   -2.609   1.812  -5.205
  25 C    4.251   9.148  -5.570
                                193 S  
                                         1.238E+03 5.457E-03 0.000E+00 0.000E+00
                                         1.863E+02 4.064E-02 0.000E+00 0.000E+00
                                         4.225E+01 1.803E-01 0.000E+00 0.000E+00
                                         1.168E+01 4.632E-01 0.000E+00 0.000E+00
                                         3.593E+00 4.409E-01 0.000E+00 0.000E+00
                                194 S  
                                         5.281E+00 1.000E+00 0.000E+00 0.000E+00
                                195 S  
                                         4.447E-01 1.000E+00 0.000E+00 0.000E+00
                         196-   198 P  
                                         9.468E+00 0.000E+00 3.839E-02 0.000E+00
                                         2.010E+00 0.000E+00 2.112E-01 0.000E+00
                                         5.477E-01 0.000E+00 5.133E-01 0.000E+00
                         199-   201 P  
                                         1.604E-01 0.000E+00 1.000E+00 0.000E+00
                         202-   206 D  
                                         6.070E-01 0.000E+00 0.000E+00 1.000E+00
                         207-   211 D  
                                         2.939E-01 0.000E+00 0.000E+00 1.000E+00
  26 C   -4.251  -3.609   5.570
  27 C   -6.705  10.595   3.320
  28 C    6.705  -2.161  -3.320
  29 C   -4.242 -11.071  -7.026
  30 C    4.242   1.686   7.026
  31 C    3.079  -9.888  -1.183
  32 C   -3.079   2.868   1.183
  33 C   -4.079  -8.301  -1.179
  34 C    4.079   4.456   1.179
  35 C    1.030   9.168   5.634
  36 C   -1.030  -3.588  -5.634
  37 C   -2.282   8.701  -2.504
  38 C    2.282  -4.056   2.504
  39 C   -5.905  -9.891   8.340
  40 C    5.905   2.866  -8.340
  41 C    0.111  -1.500 -11.544
  42 C   -0.111  11.256  11.544
  43 C    3.562  -3.742  11.264
  44 C   -3.562   9.014 -11.264
  45 C    3.387  -8.862  -8.290
  46 C   -3.387   3.894   8.290
  47 C    0.927  -9.868   5.817
  48 C   -0.927   2.888  -5.817
  49 O    4.615  10.139  -3.386
                                649 S  
                                         2.266E+03-5.343E-03 0.000E+00 0.000E+00
                                         3.409E+02-3.989E-02 0.000E+00 0.000E+00
                                         7.736E+01-1.785E-01 0.000E+00 0.000E+00
                                         2.148E+01-4.643E-01 0.000E+00 0.000E+00
                                         6.659E+00-4.431E-01 0.000E+00 0.000E+00
                                650 S  
                                         8.535E-01 1.000E+00 0.000E+00 0.000E+00
                                651 S  
                                         2.748E-01 1.000E+00 0.000E+00 0.000E+00
                         652-   654 P  
                                         1.772E+01 0.000E+00 4.339E-02 0.000E+00
                                         3.864E+00 0.000E+00 2.309E-01 0.000E+00
                                         1.048E+00 0.000E+00 5.138E-01 0.000E+00
                         655-   657 P  
                                         2.585E-01 0.000E+00 1.000E+00 0.000E+00
                         658-   662 D  
                                         7.286E-01 0.000E+00 0.000E+00 1.000E+00
                         663-   667 D  
                                         1.934E-01 0.000E+00 0.000E+00 1.000E+00
  50 O   -4.615  -2.617   3.386
  51 O    2.165   8.252  -6.257
  52 O   -2.165  -4.504   6.257
  53 O    6.614  10.787   1.160
  54 O   -6.614  -1.970  -1.160
  55 O   -4.476  11.284   3.812
  56 O    4.476  -1.472  -3.812
  57 O   -6.210 -12.138  -6.227
  58 O    6.210   0.618   6.227
  59 O   -4.065 -10.038  -9.217
  60 O    4.065   2.719   9.217
  61 O    5.226 -10.021  -2.217
  62 O   -5.226   2.735   2.217
  63 O    1.982 -11.684   0.016
  64 O   -1.982   1.073  -0.016
  65 O   -3.955 -10.724  -0.874
  66 O    3.955   2.033   0.874
  67 O   -2.647  -6.785  -0.046
  68 O    2.647   5.971   0.046
  69 O    1.179  10.419   3.573
  70 O   -1.179  -2.337  -3.573
  71 O    2.770   7.764   6.488
  72 O   -2.770  -4.992  -6.488
  73 O   -1.023  10.012  -0.892
  74 O    1.023  -2.744   0.892
  75 O   -4.499   9.166  -3.227
  76 O    4.499  -3.590   3.227
  77 O   -4.814  -8.379   9.912
  78 O    4.814   4.378  -9.912
  79 O    6.279 -10.701   8.499
  80 O   -6.279   2.055  -8.499
  81 O    0.530  -3.883 -11.315
  82 O   -0.530   8.874  11.315
  83 O   -1.790  -0.421 -10.608
  84 O    1.790  12.335  10.608
  85 O    4.777  -5.860  11.385
  86 O   -4.777   6.896 -11.385
  87 O    1.351  -3.447  10.442
  88 O   -1.351   9.309 -10.442
  89 O    4.442  -8.257 -10.399
  90 O   -4.442   4.499  10.399
  91 O    1.127  -8.400  -7.692
  92 O   -1.127   4.357   7.692
  93 O    1.186  -8.518   7.814
  94 O   -1.186   4.238  -7.814
  95 O   -1.106  -9.993   4.573
  96 O    1.106   2.763  -4.573
  97 ZN  -6.665  12.320  -2.447
                               1561 S  
                                         8.200E+04 1.421E-03 0.000E+00 0.000E+00
                                         1.231E+04 1.089E-02 0.000E+00 0.000E+00
                                         2.801E+03 5.406E-02 0.000E+00 0.000E+00
                                         7.910E+02 1.885E-01 0.000E+00 0.000E+00
                                         2.576E+02 3.835E-01 0.000E+00 0.000E+00
                                         8.881E+01 2.972E-01 0.000E+00 0.000E+00
                               1562 S  
                                         1.719E+02-1.105E-01 0.000E+00 0.000E+00
                                         2.030E+01 6.461E-01 0.000E+00 0.000E+00
                                         8.346E+00 4.422E-01 0.000E+00 0.000E+00
                               1563 S  
                                         1.485E+01-2.271E-01 0.000E+00 0.000E+00
                                         2.450E+00 7.243E-01 0.000E+00 0.000E+00
                                         9.985E-01 4.484E-01 0.000E+00 0.000E+00
                               1564 S  
                                         1.493E+00 1.000E+00 0.000E+00 0.000E+00
                               1565 S  
                                         1.830E-01 1.000E+00 0.000E+00 0.000E+00
                        1566-  1568 P  
                                         1.072E+03 0.000E+00 9.277E-03 0.000E+00
                                         2.527E+02 0.000E+00 6.954E-02 0.000E+00
                                         8.010E+01 0.000E+00 2.716E-01 0.000E+00
                                         2.890E+01 0.000E+00 5.340E-01 0.000E+00
                                         1.077E+01 0.000E+00 3.450E-01 0.000E+00
                        1569-  1571 P  
                                         5.645E+00 0.000E+00 3.413E-01 0.000E+00
                                         2.168E+00 0.000E+00 5.639E-01 0.000E+00
                                         8.054E-01 0.000E+00 2.368E-01 0.000E+00
                        1572-  1574 P  
                                         2.721E-01 0.000E+00 1.000E+00 0.000E+00
                        1575-  1579 D  
                                         5.609E+01 0.000E+00 0.000E+00 2.959E-02
                                         1.575E+01 0.000E+00 0.000E+00 1.587E-01
                                         5.312E+00 0.000E+00 0.000E+00 3.798E-01
                                         1.774E+00 0.000E+00 0.000E+00 4.690E-01
                        1580-  1584 D  
                                         5.073E-01 0.000E+00 0.000E+00 1.000E+00
                        1585-  1591 F  
                                         2.814E+00 0.000E+00 0.000E+00 1.000E+00
                        1592-  1598 F  
                                         1.300E+00 0.000E+00 0.000E+00 1.000E+00
  98 ZN   6.665  -0.437   2.447
  99 ZN   2.860   9.822   0.076
 100 ZN  -2.860  -2.934  -0.076
 101 ZN  -1.637 -12.519   1.732
 102 ZN   1.637   0.238  -1.732
 103 ZN  -1.826  -6.780  -9.852
 104 ZN   1.826   5.977   9.852
 105 ZN   3.391  -9.608  10.951
 106 ZN  -3.391   3.148 -10.951
 107 ZN   1.382   6.611  -9.634
 108 ZN  -1.382  -6.146   9.634

 *******************************************************************************
 FINISHED BASIS SET HANDLING 
 *******************************************************************************

 INFORMATION **** SET_MPP **** PCRYSTAL CALCULATION
 INFORMATION **** READM2 **** NEW DEFAULT: FOCK/KS MATRIX MIXING SET TO 30 %
 INFORMATION **** READM2 **** NEW DEFAULT: FULL DIRECT SCF MODE
 INFORMATION **** READM2 **** NEW DEFAULT: COULOMB BIPOLAR BUFFER SET TO 32 Mb
 INFORMATION **** READM2 **** NEW DEFAULT: EXCHANGE BIPOLAR BUFFER SET TO 32 Mb

 *******************************************************************************
 NEW DEFAULT: DFT INTEGRATION GRID INCREASED TO XLGRID
 NEW DEFAULT: DIIS ACCELERATOR ACTIVE
 USE KEYWORD NODIIS TO TURN IT OFF
 *******************************************************************************

 INFORMATION **** DFTD3_INPUT **** PERFORM DISPERSION CORRECTION DFT-D3(BJ) IN THE BECKE-JOHNSON DAMPING SCHEME

 PLEASE CITE:
 (1) DFT-D3 Reference
  S. Grimme, J. Antony, S. Ehrlich, and H. Krieg, J. Chem. Phys. 132 (2010), 154104
 (2) BJ-Damping Reference
  S. Grimme, S. Ehrlich, and L. Goerigk, J. Comput. Chem. 32 (2011), 1456-1465
 (3) General DFT-D Review
  S. Grimme, A. Hansen, J. G. Brandenburg, and C. Bannwarth,
  Chem. Rev. 116 (2016), 5105-5154

 INFORMATION **** BIPOSIZE **** COULOMB BIPOLAR BUFFER SET TO    30000000
 INFORMATION **** EXCHSIZE **** EXCHANGE BIPOLAR BUFFER SIZE SET TO    30000000
 INFORMATION **** TOLINTEG **** COULOMB AND EXCHANGE SERIES TOLERANCES MODIFIED
 INFORMATION **** MAXCYCLE **** MAX NUMBER OF SCF CYCLES SET TO          50
 *******************************************************************************
 N. OF ATOMS PER CELL       108  COULOMB OVERLAP TOL         (T1) 10**  -12
 NUMBER OF SHELLS           744  COULOMB PENETRATION TOL     (T2) 10**  -12
 NUMBER OF AO              2016  EXCHANGE OVERLAP TOL        (T3) 10**   20
 N. OF ELECTRONS PER CELL   912  EXCHANGE PSEUDO OVP (F(G))  (T4) 10**   20
 CORE ELECTRONS PER CELL    360  EXCHANGE PSEUDO OVP (P(G))  (T5) 10**   20
 N. OF SYMMETRY OPERATORS     2  POLE ORDER IN MONO ZONE                  4
 *******************************************************************************
 TYPE OF CALCULATION :  RESTRICTED CLOSED SHELL
 KOHN-SHAM HAMILTONIAN

 (EXCHANGE)[CORRELATION] FUNCTIONAL:(PERDEW-BURKE-ERNZERHOF)[PERDEW-BURKE-ERNZERHOF]


 CAPPA:IS1  3;IS2  3;IS3  3; K PTS MONK NET  10; SYMMOPS:K SPACE   4;G SPACE   2

 *******************************************************************************
 MAX NUMBER OF SCF CYCLES      50  CONVERGENCE ON DELTAP        10**-16
 WEIGHT OF F(I) IN F(I+1)      30% CONVERGENCE ON ENERGY        10**- 6
 SHRINK. FACT.(MONKH.)    3  3  3  NUMBER OF K POINTS IN THE IBZ     10
 SHRINKING FACTOR(GILAT NET)    3  NUMBER OF K POINTS(GILAT NET)     10
 *******************************************************************************
 *** K POINTS COORDINATES (OBLIQUE COORDINATES IN UNITS OF IS =  3)
   1-R(  0  0  0)   2-C(  1  0  0)   3-C(  0  1  0)   4-C(  1  1  0)
   5-C(  0  0  1)   6-C(  1  0  1)   7-C(  2  0  1)   8-C(  0  1  1)
   9-C(  1  1  1)  10-C(  2  1  1)

 DIRECT LATTICE VECTORS COMPON. (A.U.)     RECIP. LATTICE VECTORS COMPON. (A.U.) 
        X            Y            Z              X            Y            Z
   14.4211030    0.0000000    0.0000000      0.4356938    0.0000000    0.0832035
    0.0000000   25.5127505    0.0000000     -0.0000000    0.2462763   -0.0000000
   -4.4234952    0.0000000   23.1635491      0.0000000    0.0000000    0.2712531

 DISK SPACE FOR EIGENVECTORS (FTN 10)    77220864 REALS

 SYMMETRY ADAPTION OF THE BLOCH FUNCTIONS ENABLED
 TTTTTTTTTTTTTTTTTTTTTTTTTTTTTT gordsh1     TELAPSE        8.57 TCPU        0.10

 MATRIX SIZE: P(G) 3952560, F(G) 1977852, P(G) IRR  992818, F(G) IRR  992818
 MAX G-VECTOR INDEX FOR 1- AND 2-ELECTRON INTEGRALS  41

 TTTTTTTTTTTTTTTTTTTTTTTTTTTTTT INPUT       TELAPSE        8.69 TCPU        0.21

 NEIGHBORS OF THE NON-EQUIVALENT ATOMS

 N = NUMBER OF NEIGHBORS AT DISTANCE R
    ATOM  N     R/ANG      R/AU   NEIGHBORS (ATOM LABELS AND CELL INDICES)
   1 H    1     1.1080     2.0938   25 C    0 0 0
   1 H    1     2.0294     3.8350   49 O    0 0 0
   1 H    1     2.0574     3.8880   51 O    0 0 0
   1 H    1     2.5764     4.8686   57 O    1 1 0
   1 H    1     2.8518     5.3891   82 O    0 0-1
   1 H    1     2.8650     5.4140   75 O    1 0 0

   3 H    1     1.1084     2.0946   27 C    1 0 0
   3 H    1     2.0344     3.8444   55 O    1 0 0
   3 H    1     2.0361     3.8478   53 O    0 0 0
   3 H    1     2.4309     4.5937   71 O    0 0 0
   3 H    1     2.7926     5.2773   10 H    0 0 0
   3 H    1     2.9619     5.5972   69 O    0 0 0

   5 H    1     1.1071     2.0922   29 C    0 0 0
   5 H    1     2.0273     3.8311   59 O    0 0 0
   5 H    1     2.0569     3.8870   57 O    0 0 0
   5 H    1     2.5588     4.8354   91 O    0 0 0
   5 H    1     2.7352     5.1688   65 O    0 0 0
   5 H    1     2.9564     5.5868   33 C    0 0 0

   7 H    1     1.1085     2.0947   31 C    0 0 0
   7 H    1     2.0340     3.8438   63 O    0 0 0
   7 H    1     2.0346     3.8448   61 O    0 0 0
   7 H    1     2.6569     5.0209   67 O    0 0 0
   7 H    1     2.7620     5.2195   14 H    0 0 0
   7 H    1     2.9289     5.5348   38 C    0 0 0

   9 H    1     1.1039     2.0861   33 C    0 0 0
   9 H    1     2.0370     3.8494   65 O    0 0 0
   9 H    1     2.0558     3.8848   67 O    0 0 0
   9 H    1     2.3240     4.3918   61 O   -1 0 0
   9 H    1     2.7926     5.2773    4 H    0 0 0
   9 H    1     2.9145     5.5075   72 O    0 0 0

  11 H    1     1.1064     2.0907   35 C    0 0 0
  11 H    1     2.0231     3.8231   69 O    0 0 0
  11 H    1     2.0550     3.8834   71 O    0 0 0
  11 H    1     2.4590     4.6469   82 O    0 0 0
  11 H    1     2.6891     5.0817   55 O    0 0 0
  11 H    1     2.7150     5.1306   92 O    0 0 0

  13 H    1     1.1029     2.0841   37 C    0 0 0
  13 H    1     2.0263     3.8291   73 O    0 0 0
  13 H    1     2.0335     3.8428   75 O    0 0 0
  13 H    1     2.4928     4.7107   51 O    0 0 0
  13 H    1     2.5797     4.8749   48 C    0 0 0
  13 H    1     2.6840     5.0721   96 O    0 0 0

  15 H    1     1.1052     2.0885   39 C    0 0 0
  15 H    1     2.0318     3.8396   77 O    0 0 0
  15 H    1     2.0335     3.8428   79 O   -1 0 0
  15 H    1     2.2512     4.2542   95 O    0 0 0
  15 H    1     2.5009     4.7260   55 O    0-1 0
  15 H    1     3.0559     5.7748   47 C    0 0 0

  17 H    1     1.1074     2.0926   41 C    0 0 1
  17 H    1     2.0306     3.8373   81 O    0 0 1
  17 H    1     2.0608     3.8943   83 O    0 0 1
  17 H    1     2.5938     4.9016   46 C    0 0 0
  17 H    1     2.7325     5.1636   90 O    0 0 0
  17 H    1     2.7486     5.1941   87 O    0 0 0

  19 H    1     1.1024     2.0832   43 C   -1 0-1
  19 H    1     2.0296     3.8354   87 O   -1 0-1
  19 H    1     2.0307     3.8375   85 O   -1 0-1
  19 H    1     2.1247     4.0151   83 O    0 0 0
  19 H    1     2.6542     5.0158   80 O    0 0 0
  19 H    1     2.9300     5.5369   60 O   -1 0-1

  21 H    1     1.1063     2.0906   45 C    0 0 0
  21 H    1     2.0347     3.8450   91 O    0 0 0
  21 H    1     2.0353     3.8462   89 O    0 0 0
  21 H    1     2.2881     4.3240   57 O    1 0 0
  21 H    1     2.5084     4.7401   61 O    0 0 0
  21 H    1     2.7608     5.2171   18 H    0-1 0

  23 H    1     1.1052     2.0885   47 C    0 0 0
  23 H    1     2.0303     3.8367   93 O    0 0 0
  23 H    1     2.0563     3.8859   95 O    0 0 0
  23 H    1     2.4779     4.6825   69 O    0-1 0
  23 H    1     2.6129     4.9377   79 O    0 0 0
  23 H    1     2.7934     5.2787   63 O    0 0 0

  25 C    1     1.1080     2.0938    1 H    0 0 0
  25 C    1     1.2554     2.3724   51 O    0 0 0
  25 C    1     1.2836     2.4256   49 O    0 0 0
  25 C    1     2.9552     5.5845  107 ZN   0 0 0
  25 C    1     2.9979     5.6652   97 ZN   1 0 0
  25 C    1     3.0844     5.8287   57 O    1 1 0

  27 C    1     1.1084     2.0946    3 H   -1 0 0
  27 C    1     1.2620     2.3849   55 O    0 0 0
  27 C    1     1.2872     2.4325   53 O   -1 0 0
  27 C    1     3.0839     5.8277  101 ZN   0 1 0
  27 C    1     3.1171     5.8904   99 ZN  -1 0 0
  27 C    1     3.1228     5.9013   15 H    0 1 0

  29 C    1     1.1071     2.0922    5 H    0 0 0
  29 C    1     1.2583     2.3778   57 O    0 0 0
  29 C    1     1.2854     2.4290   59 O    0 0 0
  29 C    1     2.9622     5.5977   97 ZN   0-1 0
  29 C    1     3.0045     5.6777  103 ZN   0 0 0
  29 C    1     3.0244     5.7153   21 H   -1 0 0

  31 C    1     1.1085     2.0947    7 H    0 0 0
  31 C    1     1.2628     2.3863   61 O    0 0 0
  31 C    1     1.2814     2.4216   63 O    0 0 0
  31 C    1     3.1036     5.8650   97 ZN   1-1 0
  31 C    1     3.1357     5.9257   21 H    0 0 0
  31 C    1     3.1442     5.9417   99 ZN   0-1 0

  33 C    1     1.1039     2.0861    9 H    0 0 0
  33 C    1     1.2558     2.3732   67 O    0 0 0
  33 C    1     1.2940     2.4452   65 O    0 0 0
  33 C    1     2.9086     5.4965   61 O   -1 0 0
  33 C    1     2.9564     5.5868    5 H    0 0 0
  33 C    1     2.9701     5.6126  100 ZN   0 0 0

  35 C    1     1.1064     2.0907   11 H    0 0 0
  35 C    1     1.2666     2.3935   71 O    0 0 0
  35 C    1     1.2785     2.4160   69 O    0 0 0
  35 C    1     2.8303     5.3485  104 ZN   0 0 0
  35 C    1     2.9825     5.6361    3 H    0 0 0
  35 C    1     2.9859     5.6425   23 H    0 1 0

  37 C    1     1.1029     2.0841   13 H    0 0 0
  37 C    1     1.2585     2.3783   75 O    0 0 0
  37 C    1     1.2853     2.4289   73 O    0 0 0
  37 C    1     2.9289     5.5348    8 H    0 0 0
  37 C    1     3.0081     5.6845   97 ZN   0 0 0
  37 C    1     3.0884     5.8362   51 O    0 0 0

  39 C    1     1.1052     2.0885   15 H    0 0 0
  39 C    1     1.2623     2.3853   79 O   -1 0 0
  39 C    1     1.2905     2.4386   77 O    0 0 0
  39 C    1     3.0478     5.7595  105 ZN  -1 0 0
  39 C    1     3.1092     5.8755  103 ZN   0 0 1
  39 C    1     3.1816     6.0124  108 ZN   0 0 0

  41 C    1     1.1074     2.0926   17 H    0 0-1
  41 C    1     1.2585     2.3783   83 O    0 0 0
  41 C    1     1.2857     2.4297   81 O    0 0 0
  41 C    1     2.7701     5.2347   12 H    0 0 0
  41 C    1     2.8857     5.4532    2 H    0 0-1
  41 C    1     2.9372     5.5505   19 H    0 0 0

  43 C    1     1.1024     2.0832   19 H    1 0 1
  43 C    1     1.2585     2.3782   87 O    0 0 0
  43 C    1     1.2937     2.4447   85 O    0 0 0
  43 C    1     3.0346     5.7345  108 ZN   0 0 0
  43 C    1     3.0983     5.8549   83 O    1 0 1
  43 C    1     3.1100     5.8770  105 ZN   0 0 0

  45 C    1     1.1063     2.0906   21 H    0 0 0
  45 C    1     1.2612     2.3834   91 O    0 0 0
  45 C    1     1.2883     2.4346   89 O    0 0 0
  45 C    1     2.5938     4.9016   18 H    0-1 0
  45 C    1     3.0838     5.8276  103 ZN   0 0 0
  45 C    1     3.1286     5.9121  108 ZN   0 0-1

  47 C    1     1.1052     2.0885   23 H    0 0 0
  47 C    1     1.2625     2.3858   95 O    0 0 0
  47 C    1     1.2833     2.4250   93 O    0 0 0
  47 C    1     2.5797     4.8749   14 H    0 0 0
  47 C    1     2.9121     5.5031  101 ZN   0 0 0
  47 C    1     3.0124     5.6927   69 O    0-1 0

  49 O    1     1.2836     2.4256   25 C    0 0 0
  49 O    1     2.0294     3.8350    1 H    0 0 0
  49 O    1     2.0611     3.8949   99 ZN   0 0 0
  49 O    1     2.0836     3.9374   97 ZN   1 0 0
  49 O    1     2.2331     4.2200   51 O    0 0 0
  49 O    1     2.6501     5.0079   53 O    0 0 0

  51 O    1     1.2554     2.3724   25 C    0 0 0
  51 O    1     2.0296     3.8353  107 ZN   0 0 0
  51 O    1     2.0574     3.8880    1 H    0 0 0
  51 O    1     2.2331     4.2200   49 O    0 0 0
  51 O    1     2.4928     4.7107   13 H    0 0 0
  51 O    1     2.8871     5.4559   94 O    0 0 0

  53 O    1     1.2872     2.4325   27 C    1 0 0
  53 O    1     2.0361     3.8478    3 H    0 0 0
  53 O    1     2.1299     4.0248   99 ZN   0 0 0
  53 O    1     2.1602     4.0823   97 ZN   1 0 0
  53 O    1     2.2684     4.2867   55 O    1 0 0
  53 O    1     2.6501     5.0079   49 O    0 0 0

  55 O    1     1.2620     2.3849   27 C    0 0 0
  55 O    1     2.0344     3.8444    3 H   -1 0 0
  55 O    1     2.0702     3.9121  101 ZN   0 1 0
  55 O    1     2.2684     4.2867   53 O   -1 0 0
  55 O    1     2.5009     4.7260   15 H    0 1 0
  55 O    1     2.6891     5.0817   11 H    0 0 0

  57 O    1     1.2583     2.3778   29 C    0 0 0
  57 O    1     2.0569     3.8870    5 H    0 0 0
  57 O    1     2.0901     3.9498   97 ZN   0-1 0
  57 O    1     2.2423     4.2373   59 O    0 0 0
  57 O    1     2.2881     4.3240   21 H   -1 0 0
  57 O    1     2.5764     4.8686    1 H   -1-1 0

  59 O    1     1.2854     2.4290   29 C    0 0 0
  59 O    1     2.0273     3.8311    5 H    0 0 0
  59 O    1     2.0913     3.9521  105 ZN  -1 0-1
  59 O    1     2.1189     4.0041  103 ZN   0 0 0
  59 O    1     2.2423     4.2373   57 O    0 0 0
  59 O    1     2.6643     5.0348   85 O   -1 0-1

  61 O    1     1.2628     2.3863   31 C    0 0 0
  61 O    1     2.0346     3.8448    7 H    0 0 0
  61 O    1     2.1506     4.0641   97 ZN   1-1 0
  61 O    1     2.2617     4.2739   63 O    0 0 0
  61 O    1     2.3240     4.3918    9 H    1 0 0
  61 O    1     2.5084     4.7401   21 H    0 0 0

  63 O    1     1.2814     2.4216   31 C    0 0 0
  63 O    1     2.0340     3.8438    7 H    0 0 0
  63 O    1     2.1655     4.0922  101 ZN   0 0 0
  63 O    1     2.1709     4.1024   99 ZN   0-1 0
  63 O    1     2.2617     4.2739   61 O    0 0 0
  63 O    1     2.6156     4.9428   73 O    0-1 0

  65 O    1     1.2940     2.4452   33 C    0 0 0
  65 O    1     2.0370     3.8494    9 H    0 0 0
  65 O    1     2.0760     3.9231  101 ZN   0 0 0
  65 O    1     2.1110     3.9893   97 ZN   0-1 0
  65 O    1     2.2393     4.2317   67 O    0 0 0
  65 O    1     2.7352     5.1688    5 H    0 0 0

  67 O    1     1.2558     2.3732   33 C    0 0 0
  67 O    1     2.0411     3.8571  100 ZN   0 0 0
  67 O    1     2.0558     3.8848    9 H    0 0 0
  67 O    1     2.2393     4.2317   65 O    0 0 0
  67 O    1     2.6569     5.0209    7 H    0 0 0
  67 O    1     2.7938     5.2795   14 H    0 0 0

  69 O    1     1.2785     2.4160   35 C    0 0 0
  69 O    1     2.0231     3.8231   11 H    0 0 0
  69 O    1     2.0770     3.9250   99 ZN   0 0 0
  69 O    1     2.2418     4.2363  101 ZN   0 1 0
  69 O    1     2.2501     4.2521   71 O    0 0 0
  69 O    1     2.4779     4.6825   23 H    0 1 0

  71 O    1     1.2666     2.3935   35 C    0 0 0
  71 O    1     2.0550     3.8834   11 H    0 0 0
  71 O    1     2.0766     3.9243  104 ZN   0 0 0
  71 O    1     2.2501     4.2521   69 O    0 0 0
  71 O    1     2.4309     4.5937    3 H    0 0 0
  71 O    1     2.8125     5.3148   92 O    0 0 0

  73 O    1     1.2853     2.4289   37 C    0 0 0
  73 O    1     2.0263     3.8291   13 H    0 0 0
  73 O    1     2.1202     4.0067   99 ZN   0 0 0
  73 O    1     2.1270     4.0194  101 ZN   0 1 0
  73 O    1     2.2603     4.2713   75 O    0 0 0
  73 O    1     2.6156     4.9428   63 O    0 1 0

  75 O    1     1.2585     2.3783   37 C    0 0 0
  75 O    1     2.0335     3.8428   13 H    0 0 0
  75 O    1     2.0660     3.9042   97 ZN   0 0 0
  75 O    1     2.2603     4.2713   73 O    0 0 0
  75 O    1     2.8565     5.3980   49 O   -1 0 0
  75 O    1     2.8650     5.4140    1 H   -1 0 0

  77 O    1     1.2905     2.4386   39 C    0 0 0
  77 O    1     2.0318     3.8396   15 H    0 0 0
  77 O    1     2.1285     4.0222  103 ZN   0 0 1
  77 O    1     2.1716     4.1036  108 ZN   0 0 0
  77 O    1     2.2740     4.2972   79 O   -1 0 0
  77 O    1     2.6358     4.9809   81 O    0 0 1

  79 O    1     1.2623     2.3853   39 C    1 0 0
  79 O    1     2.0335     3.8428   15 H    1 0 0
  79 O    1     2.0865     3.9429  105 ZN   0 0 0
  79 O    1     2.2740     4.2972   77 O    1 0 0
  79 O    1     2.6129     4.9377   23 H    0 0 0
  79 O    1     2.6542     5.0158   20 H    0-1 0

  81 O    1     1.2857     2.4297   41 C    0 0 0
  81 O    1     2.0306     3.8373   17 H    0 0-1
  81 O    1     2.1222     4.0104  103 ZN   0 0 0
  81 O    1     2.1385     4.0412  108 ZN   0 0-1
  81 O    1     2.2366     4.2265   83 O    0 0 0
  81 O    1     2.4590     4.6469   12 H    0 0 0

  83 O    1     1.2585     2.3783   41 C    0 0 0
  83 O    1     2.0608     3.8943   17 H    0 0-1
  83 O    1     2.0779     3.9267  106 ZN   0 0 0
  83 O    1     2.1247     4.0151   19 H    0 0 0
  83 O    1     2.2366     4.2265   81 O    0 0 0
  83 O    1     2.8924     5.4658   94 O    0 0 0

  85 O    1     1.2937     2.4447   43 C    0 0 0
  85 O    1     2.0307     3.8375   19 H    1 0 1
  85 O    1     2.1219     4.0098  103 ZN   1 0 1
  85 O    1     2.1272     4.0198  105 ZN   0 0 0
  85 O    1     2.2734     4.2960   87 O    0 0 0
  85 O    1     2.6643     5.0348   59 O    1 0 1

  87 O    1     1.2585     2.3782   43 C    0 0 0
  87 O    1     2.0296     3.8354   19 H    1 0 1
  87 O    1     2.0769     3.9248  108 ZN   0 0 0
  87 O    1     2.2734     4.2960   85 O    0 0 0
  87 O    1     2.7486     5.1941   17 H    0 0 0
  87 O    1     2.8825     5.4472   81 O    0 0 1

  89 O    1     1.2883     2.4346   45 C    0 0 0
  89 O    1     2.0353     3.8462   21 H    0 0 0
  89 O    1     2.1311     4.0272  108 ZN   0 0-1
  89 O    1     2.1488     4.0607  105 ZN   0 0-1
  89 O    1     2.2660     4.2821   91 O    0 0 0
  89 O    1     2.6948     5.0925   93 O    0 0-1

  91 O    1     1.2612     2.3834   45 C    0 0 0
  91 O    1     2.0347     3.8450   21 H    0 0 0
  91 O    1     2.1176     4.0017  103 ZN   0 0 0
  91 O    1     2.2660     4.2821   89 O    0 0 0
  91 O    1     2.5588     4.8354    5 H    0 0 0
  91 O    1     2.7150     5.1306   12 H    0 0 0

  93 O    1     1.2833     2.4250   47 C    0 0 0
  93 O    1     2.0303     3.8367   23 H    0 0 0
  93 O    1     2.0859     3.9418  108 ZN   0 0 0
  93 O    1     2.1091     3.9856  105 ZN   0 0 0
  93 O    1     2.2409     4.2346   95 O    0 0 0
  93 O    1     2.6948     5.0925   89 O    0 0 1

  95 O    1     1.2625     2.3858   47 C    0 0 0
  95 O    1     2.0313     3.8386  101 ZN   0 0 0
  95 O    1     2.0563     3.8859   23 H    0 0 0
  95 O    1     2.2409     4.2346   93 O    0 0 0
  95 O    1     2.2512     4.2542   15 H    0 0 0
  95 O    1     2.6840     5.0721   14 H    0 0 0

  97 ZN   1     2.0660     3.9042   75 O    0 0 0
  97 ZN   1     2.0836     3.9374   49 O   -1 0 0
  97 ZN   1     2.0901     3.9498   57 O    0 1 0
  97 ZN   1     2.1110     3.9893   65 O    0 1 0
  97 ZN   1     2.1506     4.0641   61 O   -1 1 0
  97 ZN   1     2.1602     4.0823   53 O   -1 0 0

  99 ZN   1     2.0411     3.8571   68 O    0 0 0
  99 ZN   1     2.0611     3.8949   49 O    0 0 0
  99 ZN   1     2.0770     3.9250   69 O    0 0 0
  99 ZN   1     2.1202     4.0067   73 O    0 0 0
  99 ZN   1     2.1299     4.0248   53 O    0 0 0
  99 ZN   1     2.1709     4.1024   63 O    0 1 0

 101 ZN   1     2.0313     3.8386   95 O    0 0 0
 101 ZN   1     2.0702     3.9121   55 O    0-1 0
 101 ZN   1     2.0760     3.9231   65 O    0 0 0
 101 ZN   1     2.1270     4.0194   73 O    0-1 0
 101 ZN   1     2.1655     4.0922   63 O    0 0 0
 101 ZN   1     2.2418     4.2363   69 O    0-1 0

 103 ZN   1     2.0766     3.9243   72 O    0 0 0
 103 ZN   1     2.1176     4.0017   91 O    0 0 0
 103 ZN   1     2.1189     4.0041   59 O    0 0 0
 103 ZN   1     2.1219     4.0098   85 O   -1 0-1
 103 ZN   1     2.1222     4.0104   81 O    0 0 0
 103 ZN   1     2.1285     4.0222   77 O    0 0-1

 105 ZN   1     2.0779     3.9267   84 O    0-1 0
 105 ZN   1     2.0865     3.9429   79 O    0 0 0
 105 ZN   1     2.0913     3.9521   59 O    1 0 1
 105 ZN   1     2.1091     3.9856   93 O    0 0 0
 105 ZN   1     2.1272     4.0198   85 O    0 0 0
 105 ZN   1     2.1488     4.0607   89 O    0 0 1

 107 ZN   1     2.0296     3.8353   51 O    0 0 0
 107 ZN   1     2.0769     3.9248   88 O    0 0 0
 107 ZN   1     2.0859     3.9418   94 O    0 0 0
 107 ZN   1     2.1311     4.0272   90 O    0 0-1
 107 ZN   1     2.1385     4.0412   82 O    0 0-1
 107 ZN   1     2.1716     4.1036   78 O    0 0 0


 SYMMETRY ALLOWED INTERNAL DEGREE(S) OF FREEDOM: 161
 TTTTTTTTTTTTTTTTTTTTTTTTTTTTTT SYMM        TELAPSE       12.08 TCPU        3.57
 TTTTTTTTTTTTTTTTTTTTTTTTTTTTTT INT_SCREEN  TELAPSE       12.10 TCPU        3.60
 INFORMATION **** EXCBUF **** EXCH. BIPO BUFFER: WORDS USED =           0

 DFT PARAMETERS

     ATOM       ELECTRONS   NET CHARGE   R(ANGSTROM)
   1   1  H       1.0000      0.0000     1.11000000
  25   6  C       6.0000      0.0000     0.77000000
  49   8  O       8.0000      0.0000     0.74000000
  97  30  ZN     30.0000      0.0000     1.37000000

 SIZE OF GRID=    1507265
 TTTTTTTTTTTTTTTTTTTTTTTTTTTTTT MAKE_GRID2  TELAPSE       14.02 TCPU        5.51
 BECKE WEIGHT FUNCTION
 RADSAFE =     2.00
 TOLERANCES - DENSITY:10**- 6; POTENTIAL:10**- 9; GRID WGT:10**-14

 RADIAL INTEGRATION  - INTERVALS (POINTS,UPPER LIMIT):            1( 75,  4.0*R)

 ANGULAR INTEGRATION - INTERVALS (ACCURACY LEVEL [N. POINTS] UPPER LIMIT):
  1(  4[  86]   0.2)  2(  8[ 194]   0.5)  3( 12[ 350]   0.9)  4( 16[ 974]   3.5)
  5( 12[ 350]9999.0)
 TTTTTTTTTTTTTTTTTTTTTTTTTTTTTT INT_CALC    TELAPSE       14.10 TCPU        5.58
 EEEEEEEEEE INT_CALC TERMINATION  DATE 29 07 2022 TIME 11:43:04.3

 *******************************************************************************
 C:\users\rbnfritz\My Documents\tmp_p\newconn.mol                                
 CRYSTAL - SCF - TYPE OF CALCULATION :  RESTRICTED CLOSED SHELL
 *******************************************************************************

 CAPPA:IS1  3;IS2  3;IS3  3; K PTS MONK NET  10; SYMMOPS:K SPACE   4;G SPACE   2

 TTTTTTTTTTTTTTTTTTTTTTTTTTTTTT SDIK        TELAPSE       15.03 TCPU        6.51

 AAAAAAAAAAAAAAAAAAAAAAAAAAAAAAAAAAAAAAAAAAAAAAAAAAAAAAAAAAAAAAAAAAAAAAAAAAAAAAA
         ATOMIC WAVEFUNCTION(S)


 NUCLEAR CHARGE  1.0  SYMMETRY SPECIES            S
 N. ELECTRONS    1.0  NUMBER OF PRIMITIVE GTOS    4
                      NUMBER OF CONTRACTED GTOS   2
                      NUMBER OF CLOSED SHELLS     0
                      OPEN SHELL OCCUPATION       1

  ZNUC SCFIT  TOTAL HF ENERGY   KINETIC ENERGY   VIRIAL THEOREM ACCURACY
   1.0   1   -4.946643675E-01  4.917913167E-01 -2.005842012E+00  9.4E-17

 NUCLEAR CHARGE  6.0  SYMMETRY SPECIES            S    P
 N. ELECTRONS    6.0  NUMBER OF PRIMITIVE GTOS    7    4
                      NUMBER OF CONTRACTED GTOS   3    2
                      NUMBER OF CLOSED SHELLS     2    0
                      OPEN SHELL OCCUPATION       0    2

  ZNUC SCFIT  TOTAL HF ENERGY   KINETIC ENERGY   VIRIAL THEOREM ACCURACY
   6.0   6   -3.750912652E+01  3.905246519E+01 -1.960480378E+00  3.7E-06

 NUCLEAR CHARGE  8.0  SYMMETRY SPECIES            S    P
 N. ELECTRONS    8.0  NUMBER OF PRIMITIVE GTOS    7    4
                      NUMBER OF CONTRACTED GTOS   3    2
                      NUMBER OF CLOSED SHELLS     2    0
                      OPEN SHELL OCCUPATION       0    4

  ZNUC SCFIT  TOTAL HF ENERGY   KINETIC ENERGY   VIRIAL THEOREM ACCURACY
   8.0  13   -7.471108462E+01  7.476889254E+01 -1.999226845E+00  2.4E-06

 NUCLEAR CHARGE 30.0  SYMMETRY SPECIES            S    P    D
 N. ELECTRONS   30.0  NUMBER OF PRIMITIVE GTOS   14    9    5
                      NUMBER OF CONTRACTED GTOS   5    3    2
                      NUMBER OF CLOSED SHELLS     4    2    1
                      OPEN SHELL OCCUPATION       0    0    0

  ZNUC SCFIT  TOTAL HF ENERGY   KINETIC ENERGY   VIRIAL THEOREM ACCURACY
  30.0  10   -1.777404290E+03  1.777325716E+03 -2.000044209E+00  2.5E-06

 AAAAAAAAAAAAAAAAAAAAAAAAAAAAAAAAAAAAAAAAAAAAAAAAAAAAAAAAAAAAAAAAAAAAAAAAAAAAAAA

 TOTAL ATOMIC CHARGES:
   1.0000000   1.0000000   1.0000000   1.0000000   1.0000000   1.0000000
   1.0000000   1.0000000   1.0000000   1.0000000   1.0000000   1.0000000
   1.0000000   1.0000000   1.0000000   1.0000000   1.0000000   1.0000000
   1.0000000   1.0000000   1.0000000   1.0000000   1.0000000   1.0000000
   6.0000000   6.0000000   6.0000000   6.0000000   6.0000000   6.0000000
   6.0000000   6.0000000   6.0000000   6.0000000   6.0000000   6.0000000
   6.0000000   6.0000000   6.0000000   6.0000000   6.0000000   6.0000000
   6.0000000   6.0000000   6.0000000   6.0000000   6.0000000   6.0000000
   8.0000000   8.0000000   8.0000000   8.0000000   8.0000000   8.0000000
   8.0000000   8.0000000   8.0000000   8.0000000   8.0000000   8.0000000
   8.0000000   8.0000000   8.0000000   8.0000000   8.0000000   8.0000000
   8.0000000   8.0000000   8.0000000   8.0000000   8.0000000   8.0000000
   8.0000000   8.0000000   8.0000000   8.0000000   8.0000000   8.0000000
   8.0000000   8.0000000   8.0000000   8.0000000   8.0000000   8.0000000
   8.0000000   8.0000000   8.0000000   8.0000000   8.0000000   8.0000000
   8.0000000   8.0000000   8.0000000   8.0000000   8.0000000   8.0000000
  30.0000000  30.0000000  30.0000000  30.0000000  30.0000000  30.0000000
  30.0000000  30.0000000  30.0000000  30.0000000  30.0000000  30.0000000
 TTTTTTTTTTTTTTTTTTTTTTTTTTTTTT MOQGAD      TELAPSE       21.78 TCPU       13.23
 TTTTTTTTTTTTTTTTTTTTTTTTTTTTTT SHELLXN     TELAPSE       95.36 TCPU       86.17
 TTTTTTTTTTTTTTTTTTTTTTTTTTTTTT MONMO3      TELAPSE      107.00 TCPU       97.75
 NUMERICALLY INTEGRATED DENSITY    911.9998935822
 TTTTTTTTTTTTTTTTTTTTTTTTTTTTTT NUMDFT      TELAPSE      108.13 TCPU       98.88
 CYC   0 ETOT(AU) -2.588270455732E+04 DETOT -2.59E+04 tst  0.00E+00 PX  1.00E+00
 TTTTTTTTTTTTTTTTTTTTTTTTTTTTTT DIIS        TELAPSE      108.32 TCPU       99.07
 TTTTTTTTTTTTTTTTTTTTTTTTTTTTTT FDIK        TELAPSE      303.09 TCPU      292.19
 INSULATING STATE
 TOP OF VALENCE BANDS -    BAND    456; K    6; EIG -1.2265748E-01 AU
 TOP OF VALENCE BANDS -    BAND    456; K    1; EIG -1.2313099E-01 AU
 BOTTOM OF VIRTUAL BANDS - BAND    457; K    2; EIG -8.0038703E-02 AU
 INDIRECT ENERGY BAND GAP:   1.1597 eV
 BOTTOM OF VIRTUAL BANDS - BAND    457; K    1; EIG -7.9556618E-02 AU
 TTTTTTTTTTTTTTTTTTTTTTTTTTTTTT PDIG        TELAPSE      305.63 TCPU      294.72
 TOTAL ATOMIC CHARGES:
   1.2311950   1.2311950   1.2671270   1.2671270   1.1782068   1.1782068
   1.1933166   1.1933166   1.1807449   1.1807449   1.1995112   1.1995112
   1.2273361   1.2273361   1.1891650   1.1891650   1.1722958   1.1722958
   1.1788807   1.1788807   1.1924642   1.1924642   1.1824819   1.1824819
   4.6372258   4.6372258   4.5934690   4.5934690   4.6664155   4.6664155
   4.6557143   4.6557143   4.6166266   4.6166266   4.6338888   4.6338888
   4.5986563   4.5986563   4.6312811   4.6312811   4.6225333   4.6225333
   4.6447231   4.6447231   4.6128299   4.6128299   4.6421191   4.6421191
   9.1139218   9.1139218   9.0736172   9.0736172   9.1421733   9.1421733
   9.0712618   9.0712618   9.0716858   9.0716858   9.1227020   9.1227020
   9.0555283   9.0555283   9.1106743   9.1106743   9.1457304   9.1457304
   9.0835901   9.0835901   9.1135380   9.1135380   9.0855338   9.0855338
   9.1224821   9.1224821   9.0761202   9.0761202   9.1460289   9.1460289
   9.0822831   9.0822831   9.1167424   9.1167424   9.1083453   9.1083453
   9.1390086   9.1390086   9.0767281   9.0767281   9.1353171   9.1353171
   9.0750719   9.0750719   9.1186309   9.1186309   9.1002003   9.1002003
  27.9489370  27.9489370  27.9063771  27.9063771  27.9216318  27.9216318
  27.9320684  27.9320684  27.9179532  27.9179532  27.9379089  27.9379089
 TTTTTTTTTTTTTTTTTTTTTTTTTTTTTT MOQGAD      TELAPSE      305.66 TCPU      294.75
 TTTTTTTTTTTTTTTTTTTTTTTTTTTTTT SHELLXN     TELAPSE      392.10 TCPU      380.10
 TTTTTTTTTTTTTTTTTTTTTTTTTTTTTT MONMO3      TELAPSE      400.62 TCPU      388.59
 NUMERICALLY INTEGRATED DENSITY    911.9998863012
 TTTTTTTTTTTTTTTTTTTTTTTTTTTTTT NUMDFT      TELAPSE      403.85 TCPU      391.80
 CYC   1 ETOT(AU) -2.587375475999E+04 DETOT  8.95E+00 tst  0.00E+00 PX  1.00E+00
 TTTTTTTTTTTTTTTTTTTTTTTTTTTTTT DIIS        TELAPSE      404.42 TCPU      392.37
 DIIS TEST: 0.40909E+02 AT SCF   CYCLE   1 - MIX   30 %
 TTTTTTTTTTTTTTTTTTTTTTTTTTTTTT FDIK        TELAPSE      477.40 TCPU      464.20
 INSULATING STATE
 TOP OF VALENCE BANDS -    BAND    456; K    2; EIG -1.4260510E-01 AU
 TOP OF VALENCE BANDS -    BAND    456; K    1; EIG -1.4774683E-01 AU
 BOTTOM OF VIRTUAL BANDS - BAND    457; K    2; EIG -3.3420392E-02 AU
 DIRECT ENERGY BAND GAP:   2.9711 eV
 BOTTOM OF VIRTUAL BANDS - BAND    457; K    1; EIG -3.2765258E-02 AU
 TTTTTTTTTTTTTTTTTTTTTTTTTTTTTT PDIG        TELAPSE      479.89 TCPU      466.68
 TOTAL ATOMIC CHARGES:
   1.2574148   1.2574148   1.2497025   1.2497025   1.1940801   1.1940801
   1.1836131   1.1836131   1.2355630   1.2355630   1.2343310   1.2343310
   1.2576268   1.2576268   1.2268706   1.2268706   1.1988259   1.1988259
   1.2313125   1.2313125   1.2261535   1.2261535   1.1858183   1.1858183
   5.9158865   5.9158865   5.8918589   5.8918589   5.9353872   5.9353872
   6.0207475   6.0207475   5.8929757   5.8929757   5.9218033   5.9218033
   5.9012803   5.9012803   5.9416718   5.9416718   5.9290168   5.9290168
   5.9356747   5.9356747   5.9363416   5.9363416   5.8959449   5.8959449
   8.3116932   8.3116932   7.9056971   7.9056971   8.3154264   8.3154264
   7.9228872   7.9228872   7.9022670   7.9022670   8.2890142   8.2890142
   7.8894889   7.8894889   8.2329894   8.2329894   8.3428473   8.3428473
   7.9243521   7.9243521   8.2462576   8.2462576   7.9378628   7.9378628
   8.3100915   8.3100915   7.9352171   7.9352171   8.3264787   8.3264787
   7.8880871   7.8880871   8.2673142   8.2673142   7.9936872   7.9936872
   8.3369301   8.3369301   7.8849586   7.8849586   8.3310820   8.3310820
   7.9198399   7.9198399   8.2770633   8.2770633   7.9255381   7.9255381
  29.2685537  29.2685537  29.2694640  29.2694640  29.2414740  29.2414740
  29.2732198  29.2732198  29.2716119  29.2716119  29.2587043  29.2587043
 TTTTTTTTTTTTTTTTTTTTTTTTTTTTTT MOQGAD      TELAPSE      479.92 TCPU      466.71
 TTTTTTTTTTTTTTTTTTTTTTTTTTTTTT SHELLXN     TELAPSE      568.49 TCPU      552.06
 TTTTTTTTTTTTTTTTTTTTTTTTTTTTTT MONMO3      TELAPSE      576.96 TCPU      560.50
 NUMERICALLY INTEGRATED DENSITY    911.9998368105
 TTTTTTTTTTTTTTTTTTTTTTTTTTTTTT NUMDFT      TELAPSE      580.09 TCPU      563.62
 CYC   2 ETOT(AU) -2.587093087065E+04 DETOT  2.82E+00 tst  2.70E-02 PX  5.60E-01
 TTTTTTTTTTTTTTTTTTTTTTTTTTTTTT DIIS        TELAPSE      580.70 TCPU      564.22
 DIIS TEST: 0.53718E+02 AT SCF   CYCLE   2 - DIIS ACTIVE - HISTORY:     2 CYCLES
 TTTTTTTTTTTTTTTTTTTTTTTTTTTTTT FDIK        TELAPSE      650.96 TCPU      631.10
 INSULATING STATE
 TOP OF VALENCE BANDS -    BAND    456; K    1; EIG -2.3523848E-01 AU
 BOTTOM OF VIRTUAL BANDS - BAND    457; K    1; EIG -5.9937638E-02 AU
 DIRECT ENERGY BAND GAP:   4.7702 eV
 TTTTTTTTTTTTTTTTTTTTTTTTTTTTTT PDIG        TELAPSE      653.47 TCPU      633.59
 TOTAL ATOMIC CHARGES:
   1.1632779   1.1632779   1.1783074   1.1783074   1.1141345   1.1141345
   1.1233759   1.1233759   1.1267201   1.1267201   1.1453704   1.1453704
   1.1630166   1.1630166   1.1349809   1.1349809   1.1084164   1.1084164
   1.1273946   1.1273946   1.1357505   1.1357505   1.1004018   1.1004018
   5.0593825   5.0593825   5.0762397   5.0762397   5.0951034   5.0951034
   5.1642682   5.1642682   5.0291037   5.0291037   5.0860949   5.0860949
   5.0998335   5.0998335   5.1025886   5.1025886   5.0884961   5.0884961
   5.1121872   5.1121872   5.0921974   5.0921974   5.0610491   5.0610491
   8.6548884   8.6548884   8.7895652   8.7895652   8.6616408   8.6616408
   8.7471347   8.7471347   8.7681471   8.7681471   8.6687658   8.6687658
   8.7132243   8.7132243   8.6348411   8.6348411   8.6854261   8.6854261
   8.7877365   8.7877365   8.6656130   8.6656130   8.7555843   8.7555843
   8.6414812   8.6414812   8.7253601   8.7253601   8.6376736   8.6376736
   8.7803815   8.7803815   8.6653564   8.6653564   8.7766478   8.7766478
   8.6405984   8.6405984   8.7662366   8.7662366   8.6534304   8.6534304
   8.7396692   8.7396692   8.6758536   8.6758536   8.8081474   8.8081474
  28.7162649  28.7162649  28.7157443  28.7157443  28.7046549  28.7046549
  28.7006003  28.7006003  28.7179179  28.7179179  28.7137230  28.7137230
 TTTTTTTTTTTTTTTTTTTTTTTTTTTTTT MOQGAD      TELAPSE      653.50 TCPU      633.63
 TTTTTTTTTTTTTTTTTTTTTTTTTTTTTT SHELLXN     TELAPSE      739.74 TCPU      718.85
 TTTTTTTTTTTTTTTTTTTTTTTTTTTTTT MONMO3      TELAPSE      748.47 TCPU      727.53
 NUMERICALLY INTEGRATED DENSITY    911.9998748029
 TTTTTTTTTTTTTTTTTTTTTTTTTTTTTT NUMDFT      TELAPSE      751.51 TCPU      730.56
[...]
 NO.OF VECTORS CREATED 6999 STARS 1894 RMAX   242.09161 BOHR
 TTTTTTTTTTTTTTTTTTTTTTTTTTTTTT gordsh1     TELAPSE   239725.99 TCPU   235295.38

 MATRIX SIZE: P(G) 3952560, F(G) 1977852, P(G) IRR 1982256, F(G) IRR 1982256
 MAX G-VECTOR INDEX FOR 1- AND 2-ELECTRON INTEGRALS  41

 TTTTTTTTTTTTTTTTTTTTTTTTTTTTTT INPUT       TELAPSE   239726.43 TCPU   235295.81
 TTTTTTTTTTTTTTTTTTTTTTTTTTTTTT SYMM        TELAPSE   239726.43 TCPU   235295.81

 ***** NEW REFERENCE GEOMETRY *****
 TTTTTTTTTTTTTTTTTTTTTTTTTTTTTT INT_SCREEN  TELAPSE   239726.49 TCPU   235295.87
 INFORMATION **** EXCBUF **** EXCH. BIPO BUFFER: WORDS USED =           0

 DFT PARAMETERS

     ATOM       ELECTRONS   NET CHARGE   R(ANGSTROM)
   1   1  H       1.0000      0.0000     1.11000000
  25   6  C       6.0000      0.0000     0.77000000
  49   8  O       8.0000      0.0000     0.74000000
  97  30  ZN     30.0000      0.0000     1.37000000

 SIZE OF GRID=    3014530
 TTTTTTTTTTTTTTTTTTTTTTTTTTTTTT MAKE_GRID2  TELAPSE   239729.18 TCPU   235298.55
 BECKE WEIGHT FUNCTION
 RADSAFE =     2.00
 TOLERANCES - DENSITY:10**- 6; POTENTIAL:10**- 9; GRID WGT:10**-14

 RADIAL INTEGRATION  - INTERVALS (POINTS,UPPER LIMIT):            1( 75,  4.0*R)

 ANGULAR INTEGRATION - INTERVALS (ACCURACY LEVEL [N. POINTS] UPPER LIMIT):
  1(  4[  86]   0.2)  2(  8[ 194]   0.5)  3( 12[ 350]   0.9)  4( 16[ 974]   3.5)
  5( 12[ 350]9999.0)
 TTTTTTTTTTTTTTTTTTTTTTTTTTTTTT INT_CALC    TELAPSE   239729.28 TCPU   235298.64
 CYCLE   0   ALPHA 1304.667415  EPSILON    2.923751  DELTA    1.3047E+03
 TTTTTTTTTTTTTTTTTTTTTTTTTTTTTT MOQGAD      TELAPSE   240478.34 TCPU   236043.59
 TTTTTTTTTTTTTTTTTTTTTTTTTTTTTT CP_MONMON   TELAPSE   240490.03 TCPU   236055.23
 DIIS TEST: 0.31774E+03 AT CPHF  CYCLE   1 - MIX    0 %
 CYCLE   1   ALPHA  534.308556  EPSILON    1.787846  DELTA   -7.7036E+02
 TTTTTTTTTTTTTTTTTTTTTTTTTTTTTT MOQGAD      TELAPSE   241281.77 TCPU   236840.69
 TTTTTTTTTTTTTTTTTTTTTTTTTTTTTT CP_MONMON   TELAPSE   241293.47 TCPU   236852.34
 DIIS TEST: 0.35280E+04 AT CPHF  CYCLE   2 - DIIS ACTIVE - HISTORY:     2 CYCLES
 CYCLE   2   ALPHA 1042.258890  EPSILON    2.536826  DELTA    5.0795E+02
 TTTTTTTTTTTTTTTTTTTTTTTTTTTTTT MOQGAD      TELAPSE   242072.28 TCPU   237624.77
 TTTTTTTTTTTTTTTTTTTTTTTTTTTTTT CP_MONMON   TELAPSE   242083.98 TCPU   237636.42
 DIIS TEST: 0.19810E+02 AT CPHF  CYCLE   3 - DIIS ACTIVE - HISTORY:     3 CYCLES
 CYCLE   3   ALPHA 1062.507083  EPSILON    2.566682  DELTA    2.0248E+01
 TTTTTTTTTTTTTTTTTTTTTTTTTTTTTT MOQGAD      TELAPSE   242861.93 TCPU   238408.03
 TTTTTTTTTTTTTTTTTTTTTTTTTTTTTT CP_MONMON   TELAPSE   242873.63 TCPU   238419.67
 DIIS TEST: 0.43625E+01 AT CPHF  CYCLE   4 - DIIS ACTIVE - HISTORY:     4 CYCLES
 CYCLE   4   ALPHA 1072.047824  EPSILON    2.580750  DELTA    9.5407E+00
 TTTTTTTTTTTTTTTTTTTTTTTTTTTTTT MOQGAD      TELAPSE   243651.51 TCPU   239191.12
 TTTTTTTTTTTTTTTTTTTTTTTTTTTTTT CP_MONMON   TELAPSE   243663.21 TCPU   239202.77
 DIIS TEST: 0.63412E+00 AT CPHF  CYCLE   5 - DIIS ACTIVE - HISTORY:     5 CYCLES
 CYCLE   5   ALPHA 1073.482520  EPSILON    2.582865  DELTA    1.4347E+00
 TTTTTTTTTTTTTTTTTTTTTTTTTTTTTT MOQGAD      TELAPSE   244444.05 TCPU   239977.29
 TTTTTTTTTTTTTTTTTTTTTTTTTTTTTT CP_MONMON   TELAPSE   244455.80 TCPU   239988.97
 DIIS TEST: 0.45939E-01 AT CPHF  CYCLE   6 - DIIS ACTIVE - HISTORY:     6 CYCLES
 CYCLE   6   ALPHA 1074.202735  EPSILON    2.583927  DELTA    7.2022E-01
 TTTTTTTTTTTTTTTTTTTTTTTTTTTTTT MOQGAD      TELAPSE   245232.20 TCPU   240759.40
 TTTTTTTTTTTTTTTTTTTTTTTTTTTTTT CP_MONMON   TELAPSE   245243.90 TCPU   240771.05
 DIIS TEST: 0.35617E-02 AT CPHF  CYCLE   7 - DIIS ACTIVE - HISTORY:     7 CYCLES
 CYCLE   7   ALPHA 1074.236306  EPSILON    2.583977  DELTA    3.3572E-02
 TTTTTTTTTTTTTTTTTTTTTTTTTTTTTT MOQGAD      TELAPSE   246031.36 TCPU   241552.54
 TTTTTTTTTTTTTTTTTTTTTTTTTTTTTT CP_MONMON   TELAPSE   246043.14 TCPU   241564.27
 DIIS TEST: 0.22596E-02 AT CPHF  CYCLE   8 - DIIS ACTIVE - HISTORY:     8 CYCLES
 CYCLE   8   ALPHA 1074.217549  EPSILON    2.583949  DELTA   -1.8757E-02
 TTTTTTTTTTTTTTTTTTTTTTTTTTTTTT MOQGAD      TELAPSE   246823.98 TCPU   242339.05
 TTTTTTTTTTTTTTTTTTTTTTTTTTTTTT CP_MONMON   TELAPSE   246835.68 TCPU   242350.71
 DIIS TEST: 0.89340E-04 AT CPHF  CYCLE   9 - DIIS ACTIVE - HISTORY:     9 CYCLES
 CYCLE   9   ALPHA 1074.196104  EPSILON    2.583918  DELTA   -2.1445E-02
 TTTTTTTTTTTTTTTTTTTTTTTTTTTTTT MOQGAD      TELAPSE   247611.87 TCPU   243121.14
 TTTTTTTTTTTTTTTTTTTTTTTTTTTTTT CP_MONMON   TELAPSE   247623.56 TCPU   243132.79
 DIIS TEST: 0.14805E-04 AT CPHF  CYCLE  10 - DIIS ACTIVE - HISTORY:    10 CYCLES
 CYCLE  10   ALPHA 1074.185923  EPSILON    2.583903  DELTA   -1.0181E-02
 TTTTTTTTTTTTTTTTTTTTTTTTTTTTTT MOQGAD      TELAPSE   248401.23 TCPU   243905.30
 TTTTTTTTTTTTTTTTTTTTTTTTTTTTTT CP_MONMON   TELAPSE   248412.94 TCPU   243916.97
 DIIS TEST: 0.41418E-05 AT CPHF  CYCLE  11 - DIIS ACTIVE - HISTORY:    11 CYCLES
 CYCLE  11   ALPHA 1074.182243  EPSILON    2.583897  DELTA   -3.6801E-03
 TTTTTTTTTTTTTTTTTTTTTTTTTTTTTT MOQGAD      TELAPSE   249193.95 TCPU   244690.84
 TTTTTTTTTTTTTTTTTTTTTTTTTTTTTT CP_MONMON   TELAPSE   249205.66 TCPU   244702.48
 DIIS TEST: 0.46397E-06 AT CPHF  CYCLE  12 - DIIS ACTIVE - HISTORY:    12 CYCLES
 CYCLE  12   ALPHA 1074.181121  EPSILON    2.583895  DELTA   -1.1218E-03
 TTTTTTTTTTTTTTTTTTTTTTTTTTTTTT MOQGAD      TELAPSE   249983.14 TCPU   245474.72
 TTTTTTTTTTTTTTTTTTTTTTTTTTTTTT CP_MONMON   TELAPSE   249994.88 TCPU   245486.41
 DIIS TEST: 0.34050E-07 AT CPHF  CYCLE  13 - DIIS ACTIVE - HISTORY:    13 CYCLES
 CYCLE  13   ALPHA 1074.180795  EPSILON    2.583895  DELTA   -3.2642E-04
 TTTTTTTTTTTTTTTTTTTTTTTTTTTTTT CP_SC       TELAPSE   250096.61 TCPU   245585.22

 *******************************************************************************

 ELECTRIC FIELD APPLIED ALONG CARTESIAN DIRECTION Y

 *******************************************************************************
 NEW GRID IN RECIPROCAL SPACE
 *******************************************************************************
 POINTS IN THE IBZ                  10 SHRINKING FACTORS               3  3  3
 *******************************************************************************
 *** K POINTS COORDINATES (OBLIQUE COORDINATES IN UNITS OF SHRINK FAC. )
   1-R(  0  0  0)   2-C(  1  0  0)   3-C(  0  1  0)   4-C(  1  1  0)
   5-C(  0  0  1)   6-C(  1  0  1)   7-C(  2  0  1)   8-C(  0  1  1)
   9-C(  1  1  1)  10-C(  2  1  1)

 GCALCO - MAX INDICES DIRECT LATTICE VECTOR    21    11    13
 NO.OF VECTORS CREATED 6999 STARS 1894 RMAX   242.09161 BOHR
 TTTTTTTTTTTTTTTTTTTTTTTTTTTTTT gordsh1     TELAPSE   250096.64 TCPU   245585.24

 MATRIX SIZE: P(G) 3952560, F(G) 1977852, P(G) IRR  992818, F(G) IRR  992818
 MAX G-VECTOR INDEX FOR 1- AND 2-ELECTRON INTEGRALS  41

 TTTTTTTTTTTTTTTTTTTTTTTTTTTTTT INPUT       TELAPSE   250096.73 TCPU   245585.34
 TTTTTTTTTTTTTTTTTTTTTTTTTTTTTT SYMM        TELAPSE   250096.73 TCPU   245585.34

 ***** NEW REFERENCE GEOMETRY *****
 TTTTTTTTTTTTTTTTTTTTTTTTTTTTTT INT_SCREEN  TELAPSE   250096.75 TCPU   245585.35
 INFORMATION **** EXCBUF **** EXCH. BIPO BUFFER: WORDS USED =           0

 DFT PARAMETERS

     ATOM       ELECTRONS   NET CHARGE   R(ANGSTROM)
   1   1  H       1.0000      0.0000     1.11000000
  25   6  C       6.0000      0.0000     0.77000000
  49   8  O       8.0000      0.0000     0.74000000
  97  30  ZN     30.0000      0.0000     1.37000000

 SIZE OF GRID=    1507265
 TTTTTTTTTTTTTTTTTTTTTTTTTTTTTT MAKE_GRID2  TELAPSE   250098.32 TCPU   245586.91
 BECKE WEIGHT FUNCTION
 RADSAFE =     2.00
 TOLERANCES - DENSITY:10**- 6; POTENTIAL:10**- 9; GRID WGT:10**-14

 RADIAL INTEGRATION  - INTERVALS (POINTS,UPPER LIMIT):            1( 75,  4.0*R)

 ANGULAR INTEGRATION - INTERVALS (ACCURACY LEVEL [N. POINTS] UPPER LIMIT):
  1(  4[  86]   0.2)  2(  8[ 194]   0.5)  3( 12[ 350]   0.9)  4( 16[ 974]   3.5)
  5( 12[ 350]9999.0)
 TTTTTTTTTTTTTTTTTTTTTTTTTTTTTT INT_CALC    TELAPSE   250098.38 TCPU   245586.97
 CYCLE   0   ALPHA 1110.928889  EPSILON    2.638081  DELTA    1.1109E+03
 TTTTTTTTTTTTTTTTTTTTTTTTTTTTTT MOQGAD      TELAPSE   250487.00 TCPU   245973.51
 TTTTTTTTTTTTTTTTTTTTTTTTTTTTTT CP_MONMON   TELAPSE   250493.08 TCPU   245979.56
 DIIS TEST: 0.15991E+03 AT CPHF  CYCLE   1 - MIX    0 %
 CYCLE   1   ALPHA  658.371284  EPSILON    1.970778  DELTA   -4.5256E+02
 TTTTTTTTTTTTTTTTTTTTTTTTTTTTTT MOQGAD      TELAPSE   250918.77 TCPU   246401.61
 TTTTTTTTTTTTTTTTTTTTTTTTTTTTTT CP_MONMON   TELAPSE   250924.84 TCPU   246407.65
 DIIS TEST: 0.14945E+04 AT CPHF  CYCLE   2 - DIIS ACTIVE - HISTORY:     2 CYCLES
 CYCLE   2   ALPHA  909.897737  EPSILON    2.341657  DELTA    2.5153E+02
 TTTTTTTTTTTTTTTTTTTTTTTTTTTTTT MOQGAD      TELAPSE   251339.81 TCPU   246818.83
 TTTTTTTTTTTTTTTTTTTTTTTTTTTTTT CP_MONMON   TELAPSE   251345.88 TCPU   246824.86
 DIIS TEST: 0.96210E+01 AT CPHF  CYCLE   3 - DIIS ACTIVE - HISTORY:     3 CYCLES
 CYCLE   3   ALPHA  936.305534  EPSILON    2.380596  DELTA    2.6408E+01
 TTTTTTTTTTTTTTTTTTTTTTTTTTTTTT MOQGAD      TELAPSE   251759.43 TCPU   247235.17
 TTTTTTTTTTTTTTTTTTTTTTTTTTTTTT CP_MONMON   TELAPSE   251765.57 TCPU   247241.28
 DIIS TEST: 0.49627E+01 AT CPHF  CYCLE   4 - DIIS ACTIVE - HISTORY:     4 CYCLES
 CYCLE   4   ALPHA  939.578343  EPSILON    2.385422  DELTA    3.2728E+00
 TTTTTTTTTTTTTTTTTTTTTTTTTTTTTT MOQGAD      TELAPSE   252179.04 TCPU   247651.66
 TTTTTTTTTTTTTTTTTTTTTTTTTTTTTT CP_MONMON   TELAPSE   252185.11 TCPU   247657.70
 DIIS TEST: 0.33493E+01 AT CPHF  CYCLE   5 - DIIS ACTIVE - HISTORY:     5 CYCLES
 CYCLE   5   ALPHA  940.616717  EPSILON    2.386953  DELTA    1.0384E+00
 TTTTTTTTTTTTTTTTTTTTTTTTTTTTTT MOQGAD      TELAPSE   252599.00 TCPU   248068.27
 TTTTTTTTTTTTTTTTTTTTTTTTTTTTTT CP_MONMON   TELAPSE   252605.06 TCPU   248074.31
 DIIS TEST: 0.35356E+00 AT CPHF  CYCLE   6 - DIIS ACTIVE - HISTORY:     6 CYCLES
 CYCLE   6   ALPHA  941.114221  EPSILON    2.387686  DELTA    4.9750E-01
 TTTTTTTTTTTTTTTTTTTTTTTTTTTTTT MOQGAD      TELAPSE   253018.28 TCPU   248484.31
 TTTTTTTTTTTTTTTTTTTTTTTTTTTTTT CP_MONMON   TELAPSE   253024.34 TCPU   248490.35
 DIIS TEST: 0.29307E-01 AT CPHF  CYCLE   7 - DIIS ACTIVE - HISTORY:     7 CYCLES
 CYCLE   7   ALPHA  941.334871  EPSILON    2.388012  DELTA    2.2065E-01
 TTTTTTTTTTTTTTTTTTTTTTTTTTTTTT MOQGAD      TELAPSE   253437.53 TCPU   248900.57
 TTTTTTTTTTTTTTTTTTTTTTTTTTTTTT CP_MONMON   TELAPSE   253443.60 TCPU   248906.61
 DIIS TEST: 0.33645E-02 AT CPHF  CYCLE   8 - DIIS ACTIVE - HISTORY:     8 CYCLES
 CYCLE   8   ALPHA  941.395270  EPSILON    2.388101  DELTA    6.0399E-02
 TTTTTTTTTTTTTTTTTTTTTTTTTTTTTT MOQGAD      TELAPSE   253857.29 TCPU   249317.22
 TTTTTTTTTTTTTTTTTTTTTTTTTTTTTT CP_MONMON   TELAPSE   253863.36 TCPU   249323.27
 DIIS TEST: 0.34712E-03 AT CPHF  CYCLE   9 - DIIS ACTIVE - HISTORY:     9 CYCLES
 CYCLE   9   ALPHA  941.367804  EPSILON    2.388060  DELTA   -2.7466E-02
 TTTTTTTTTTTTTTTTTTTTTTTTTTTTTT MOQGAD      TELAPSE   254278.71 TCPU   249729.74
 TTTTTTTTTTTTTTTTTTTTTTTTTTTTTT CP_MONMON   TELAPSE   254284.79 TCPU   249735.79
 DIIS TEST: 0.12822E-03 AT CPHF  CYCLE  10 - DIIS ACTIVE - HISTORY:    10 CYCLES
 CYCLE  10   ALPHA  941.351923  EPSILON    2.388037  DELTA   -1.5880E-02
 TTTTTTTTTTTTTTTTTTTTTTTTTTTTTT MOQGAD      TELAPSE   254699.00 TCPU   250146.97
 TTTTTTTTTTTTTTTTTTTTTTTTTTTTTT CP_MONMON   TELAPSE   254705.07 TCPU   250153.01
 DIIS TEST: 0.28794E-05 AT CPHF  CYCLE  11 - DIIS ACTIVE - HISTORY:    11 CYCLES
 CYCLE  11   ALPHA  941.346364  EPSILON    2.388029  DELTA   -5.5599E-03
 TTTTTTTTTTTTTTTTTTTTTTTTTTTTTT MOQGAD      TELAPSE   255119.55 TCPU   250560.00
 TTTTTTTTTTTTTTTTTTTTTTTTTTTTTT CP_MONMON   TELAPSE   255125.62 TCPU   250566.02
 DIIS TEST: 0.17843E-05 AT CPHF  CYCLE  12 - DIIS ACTIVE - HISTORY:    12 CYCLES
 CYCLE  12   ALPHA  941.345466  EPSILON    2.388027  DELTA   -8.9741E-04
 TTTTTTTTTTTTTTTTTTTTTTTTTTTTTT CP_SC       TELAPSE   255208.83 TCPU   250644.61

 *******************************************************************************

 ELECTRIC FIELD APPLIED ALONG CARTESIAN DIRECTION Z

 *******************************************************************************
 THE NUMBER OF SYMMETRY OPERATORS HAS BEEN REDUCED FROM  2 TO  1

 NEW GRID IN RECIPROCAL SPACE
 *******************************************************************************
 POINTS IN THE IBZ                  14 SHRINKING FACTORS               3  3  3
 *******************************************************************************
 *** K POINTS COORDINATES (OBLIQUE COORDINATES IN UNITS OF SHRINK FAC. )
   1-R(  0  0  0)   2-C(  1  0  0)   3-C(  0  1  0)   4-C(  1  1  0)
   5-C(  2  1  0)   6-C(  0  0  1)   7-C(  1  0  1)   8-C(  2  0  1)
   9-C(  0  1  1)  10-C(  0  1  2)  11-C(  1  1  1)  12-C(  2  1  2)
  13-C(  2  1  1)  14-C(  1  1  2)

 GCALCO - MAX INDICES DIRECT LATTICE VECTOR    21    11    13
 NO.OF VECTORS CREATED 6999 STARS 1894 RMAX   242.09161 BOHR
 TTTTTTTTTTTTTTTTTTTTTTTTTTTTTT gordsh1     TELAPSE   255208.86 TCPU   250644.64

 MATRIX SIZE: P(G) 3952560, F(G) 1977852, P(G) IRR 1982256, F(G) IRR 1982256
 MAX G-VECTOR INDEX FOR 1- AND 2-ELECTRON INTEGRALS  41

 TTTTTTTTTTTTTTTTTTTTTTTTTTTTTT INPUT       TELAPSE   255209.12 TCPU   250644.90
 TTTTTTTTTTTTTTTTTTTTTTTTTTTTTT SYMM        TELAPSE   255209.12 TCPU   250644.90

 ***** NEW REFERENCE GEOMETRY *****
 TTTTTTTTTTTTTTTTTTTTTTTTTTTTTT INT_SCREEN  TELAPSE   255209.15 TCPU   250644.93
 INFORMATION **** EXCBUF **** EXCH. BIPO BUFFER: WORDS USED =           0

 DFT PARAMETERS

     ATOM       ELECTRONS   NET CHARGE   R(ANGSTROM)
   1   1  H       1.0000      0.0000     1.11000000
  25   6  C       6.0000      0.0000     0.77000000
  49   8  O       8.0000      0.0000     0.74000000
  97  30  ZN     30.0000      0.0000     1.37000000

 SIZE OF GRID=    3014530
 TTTTTTTTTTTTTTTTTTTTTTTTTTTTTT MAKE_GRID2  TELAPSE   255211.69 TCPU   250647.44
 BECKE WEIGHT FUNCTION
 RADSAFE =     2.00
 TOLERANCES - DENSITY:10**- 6; POTENTIAL:10**- 9; GRID WGT:10**-14

 RADIAL INTEGRATION  - INTERVALS (POINTS,UPPER LIMIT):            1( 75,  4.0*R)

 ANGULAR INTEGRATION - INTERVALS (ACCURACY LEVEL [N. POINTS] UPPER LIMIT):
  1(  4[  86]   0.2)  2(  8[ 194]   0.5)  3( 12[ 350]   0.9)  4( 16[ 974]   3.5)
  5( 12[ 350]9999.0)
 TTTTTTTTTTTTTTTTTTTTTTTTTTTTTT INT_CALC    TELAPSE   255211.79 TCPU   250647.54
 CYCLE   0   ALPHA 1138.955168  EPSILON    2.679406  DELTA    1.1390E+03
 TTTTTTTTTTTTTTTTTTTTTTTTTTTTTT MOQGAD      TELAPSE   255922.02 TCPU   251351.35
 TTTTTTTTTTTTTTTTTTTTTTTTTTTTTT CP_MONMON   TELAPSE   255933.71 TCPU   251362.95
 DIIS TEST: 0.17260E+03 AT CPHF  CYCLE   1 - MIX    0 %
 CYCLE   1   ALPHA  662.607195  EPSILON    1.977024  DELTA   -4.7635E+02
 TTTTTTTTTTTTTTTTTTTTTTTTTTTTTT MOQGAD      TELAPSE   256675.21 TCPU   252098.44
 TTTTTTTTTTTTTTTTTTTTTTTTTTTTTT CP_MONMON   TELAPSE   256686.91 TCPU   252110.08
 DIIS TEST: 0.15977E+04 AT CPHF  CYCLE   2 - DIIS ACTIVE - HISTORY:     2 CYCLES
 CYCLE   2   ALPHA  934.218156  EPSILON    2.377518  DELTA    2.7161E+02
 TTTTTTTTTTTTTTTTTTTTTTTTTTTTTT MOQGAD      TELAPSE   257428.81 TCPU   252845.35
 TTTTTTTTTTTTTTTTTTTTTTTTTTTTTT CP_MONMON   TELAPSE   257440.49 TCPU   252856.99
 DIIS TEST: 0.99176E+01 AT CPHF  CYCLE   3 - DIIS ACTIVE - HISTORY:     3 CYCLES
 CYCLE   3   ALPHA  959.254760  EPSILON    2.414435  DELTA    2.5037E+01
 TTTTTTTTTTTTTTTTTTTTTTTTTTTTTT MOQGAD      TELAPSE   258191.21 TCPU   253601.78
 TTTTTTTTTTTTTTTTTTTTTTTTTTTTTT CP_MONMON   TELAPSE   258202.90 TCPU   253613.42
 DIIS TEST: 0.31907E+01 AT CPHF  CYCLE   4 - DIIS ACTIVE - HISTORY:     4 CYCLES
 CYCLE   4   ALPHA  963.649992  EPSILON    2.420916  DELTA    4.3952E+00
 TTTTTTTTTTTTTTTTTTTTTTTTTTTTTT MOQGAD      TELAPSE   258959.37 TCPU   254362.27
 TTTTTTTTTTTTTTTTTTTTTTTTTTTTTT CP_MONMON   TELAPSE   258971.15 TCPU   254373.98
 DIIS TEST: 0.36253E+00 AT CPHF  CYCLE   5 - DIIS ACTIVE - HISTORY:     5 CYCLES
 CYCLE   5   ALPHA  964.420629  EPSILON    2.422052  DELTA    7.7064E-01
 TTTTTTTTTTTTTTTTTTTTTTTTTTTTTT MOQGAD      TELAPSE   259719.51 TCPU   255115.39
 TTTTTTTTTTTTTTTTTTTTTTTTTTTTTT CP_MONMON   TELAPSE   259731.23 TCPU   255127.05
 DIIS TEST: 0.55859E-01 AT CPHF  CYCLE   6 - DIIS ACTIVE - HISTORY:     6 CYCLES
 CYCLE   6   ALPHA  964.737109  EPSILON    2.422519  DELTA    3.1648E-01
 TTTTTTTTTTTTTTTTTTTTTTTTTTTTTT MOQGAD      TELAPSE   260472.10 TCPU   255861.20
 TTTTTTTTTTTTTTTTTTTTTTTTTTTTTT CP_MONMON   TELAPSE   260483.83 TCPU   255872.88
 DIIS TEST: 0.44690E-02 AT CPHF  CYCLE   7 - DIIS ACTIVE - HISTORY:     7 CYCLES
 CYCLE   7   ALPHA  964.850000  EPSILON    2.422685  DELTA    1.1289E-01
 TTTTTTTTTTTTTTTTTTTTTTTTTTTTTT MOQGAD      TELAPSE   261225.38 TCPU   256597.34
 TTTTTTTTTTTTTTTTTTTTTTTTTTTTTT CP_MONMON   TELAPSE   261237.13 TCPU   256609.03
 DIIS TEST: 0.68776E-03 AT CPHF  CYCLE   8 - DIIS ACTIVE - HISTORY:     8 CYCLES
 CYCLE   8   ALPHA  964.827726  EPSILON    2.422652  DELTA   -2.2274E-02
 TTTTTTTTTTTTTTTTTTTTTTTTTTTTTT MOQGAD      TELAPSE   261985.25 TCPU   257347.87
 TTTTTTTTTTTTTTTTTTTTTTTTTTTTTT CP_MONMON   TELAPSE   261997.01 TCPU   257359.58
 DIIS TEST: 0.20903E-03 AT CPHF  CYCLE   9 - DIIS ACTIVE - HISTORY:     9 CYCLES
 CYCLE   9   ALPHA  964.806097  EPSILON    2.422620  DELTA   -2.1629E-02
 TTTTTTTTTTTTTTTTTTTTTTTTTTTTTT MOQGAD      TELAPSE   262740.41 TCPU   258097.32
 TTTTTTTTTTTTTTTTTTTTTTTTTTTTTT CP_MONMON   TELAPSE   262752.17 TCPU   258109.02
 DIIS TEST: 0.53327E-05 AT CPHF  CYCLE  10 - DIIS ACTIVE - HISTORY:    10 CYCLES
 CYCLE  10   ALPHA  964.798721  EPSILON    2.422610  DELTA   -7.3755E-03
 TTTTTTTTTTTTTTTTTTTTTTTTTTTTTT MOQGAD      TELAPSE   263495.68 TCPU   258841.79
 TTTTTTTTTTTTTTTTTTTTTTTTTTTTTT CP_MONMON   TELAPSE   263507.45 TCPU   258853.52
 DIIS TEST: 0.28792E-05 AT CPHF  CYCLE  11 - DIIS ACTIVE - HISTORY:    11 CYCLES
 CYCLE  11   ALPHA  964.796901  EPSILON    2.422607  DELTA   -1.8199E-03
 TTTTTTTTTTTTTTTTTTTTTTTTTTTTTT MOQGAD      TELAPSE   264256.59 TCPU   259595.83
 TTTTTTTTTTTTTTTTTTTTTTTTTTTTTT CP_MONMON   TELAPSE   264268.33 TCPU   259607.52
 DIIS TEST: 0.27242E-06 AT CPHF  CYCLE  12 - DIIS ACTIVE - HISTORY:    12 CYCLES
 CYCLE  12   ALPHA  964.796407  EPSILON    2.422606  DELTA   -4.9446E-04
 TTTTTTTTTTTTTTTTTTTTTTTTTTTTTT CP_SC       TELAPSE   264360.84 TCPU   259697.06

 *******************************************************************************

 POLARIZABILITY (ALPHA), DIELECTRIC (EPSILON) AND FIRST-ORDER ELECTRIC
 SUSCEPTIBILITY (CHI(1)) TENSORS (INDEPENDENT COMPONENTS)

  FR.(eV) COMP.   ALPHA(Re,Im)           EPSILON(Re,Im)                CHI(1)
  1.127   XX    1074.1808       0.0000       2.5839       0.0000       1.5839
  1.127   XZ      29.0582       0.0000       0.0428       0.0000       0.0428
  1.127   YY     941.3455       0.0000       2.3880       0.0000       1.3880
  1.127   ZZ     964.7964       0.0000       2.4226       0.0000       1.4226

 DIELECTRIC TENSOR

 TENSOR IN PRINCIPAL AXES SYSTEM
 AA  2.594571E+00 BB  2.388027E+00 CC  2.411930E+00

 REFRACTIVE INDICES 
 AA  1.545324E+00 BB  1.553039E+00 CC  1.610767E+00

 OPTICALLY ANISOTROPIC - BIAXIAL CRYSTAL

 ACUTE ANGLE BETWEEN OPTIC AXES (DEGREES)
 2V=  41.32161
 BIAXIAL POSITIVE: 2V ANGLE BISECTED BY THE LARGEST REFRACTIVE INDEX (CC)

 ANGLES BETWEEN OPTICAL AND BASIS LATTICE VECTORS (DEGREES)
             A1           A2           A3
 O.A. 1   155.2205      69.3392      66.8891
 O.A. 2   155.2205     110.6608      66.8891

 EPSILON=N**2=1+CHI(1)=1+ALPHA*4*PI/V,   4*PI/V=   0.00147 BOHR**(-3)
 ALPHA IN BOHR**3; EPSILON AND CHI(1) ARE DIMENSIONLESS.
 *******************************************************************************


 GCALCO - MAX INDICES DIRECT LATTICE VECTOR    21    11    13
 NO.OF VECTORS CREATED 6999 STARS 1894 RMAX   242.09161 BOHR

 CAPPA:IS1  3;IS2  3;IS3  3; K PTS MONK NET  10; SYMMOPS:K SPACE   4;G SPACE   2

 TTTTTTTTTTTTTTTTTTTTTTTTTTTTTT END         TELAPSE   264360.96 TCPU   259697.07
 EEEEEEEEEE TERMINATION  DATE 01 08 2022 TIME 13:08:51.2
NODE    0 CPU TIME =    259697.069
    TOTAL CPU TIME =  33547728.961
