/opt/sge/crc/spool/d32cepyc031/job_scripts/555688: line 6: $: command not found
Loading crystal17/1.0.2/intel/19.0
  Loading requirement: intel/19.0 ompi/4.0.1/intel/19.0
          64 PROCESSORS WORKING

         
 *******************************************************************************
 *                                                                             *
 *                               CRYSTAL17                                     *
 *                      public : 1.0.2 - March 1st, 2018                       *
 *                       HTTP://WWW.CRYSTAL.UNITO.IT                           *
 *                                                                             *
 *                              MAIN AUTHORS                                   *
 *                                                                             *
 *  R. DOVESI(1,11), V.R. SAUNDERS(2), C. ROETTI(1,11), R. ORLANDO(1,11),      *
 *  C.M. ZICOVICH-WILSON(1,3), F. PASCALE(4), B. CIVALLERI(1,11),              *
 *  K. DOLL(5), N.M. HARRISON(2,6), I.J. BUSH(7), Ph. D'ARCO(8),               *
 *  M. LLUNELL(9), M. CAUSA'(10), Y. NOEL(8), L. MASCHIO(1,11), A. ERBA(1,11)  *
 *  M. RE'RAT(14), S. CASASSA(1,11)                                            *
 *                                                                             *
 *        CONTRIBUTIONS TO THE CODE HAVE ALSO BEEN GIVEN BY                    *
 *                                                                             *
 *  M. FERRABONE(1,11), M. DE LA PIERRE(1,11), M. FERRERO(1,11),               *
 *  J. BAIMA(1,11), E. ALBANESE(1,11), M.F. PEINTINGER(12), R. BAST(13),       *
 *  B. KIRTMAN(15), V. LACIVITA(1,11), R. DEMICHELIS(1,16)                     *
 *  G. BRANDEBURG(17), S. SALUSTRO(1,11), G. SANSONE(1,11)                     *
 *  M.T. RUGGIERO(18)                                                          *
 *                                                                             *
 * (1) THEORETICAL CHEMISTRY GROUP - UNIVERSITA' DI TORINO - TORINO (ITALY)    *
 * (2) COMPUTATIONAL SCIENCE & ENGINEERING DEPARTMENT - STFC DARESBURY (UK)    *
 * (3) UNIVERSIDAD AUTONOMA DEL ESTADO DE MORELOS - CUERNAVACA (MEXICO)        *
 * (4) UNIVERSITE' DE LORRAINE - NANCY (FRANCE)                                *
 * (5) UNIVERSITAET STUTTGART- STUTTGART (GERMANY)                             *
 * (6) IMPERIAL COLLEGE - LONDON (UK)                                          *
 * (7) OXFORD E-RESEARCH CENTRE - OXFORD (UK)                                  *
 * (8) UPMC - SORBONNE UNIVERSITES - PARIS (FRANCE)                            *
 * (9) UNIVERSIDAD DE BARCELONA - BARCELONA (SPAIN)                            *
 *(10) UNIVERSITA' DI NAPOLI "FEDERICO II" - NAPOLI (ITALY)                    *
 *(11) NIS - NANOSTRUCTURED INTERFACES AND SURFACES - TORINO (ITALY)           *
 *(12) MPI FUER CHEMISCHE ENERGIEKONVERSION - MUELHEIM AN DER RUHR (GERMANY)   *
 *(13) UNIVERSITY OF TROMSO - TROMSO (NORWAY)                                  *
 *(14) UNIVERSITE' DE PAU ET DES PAYS DE L'ADOUR - PAU (FRANCE)                *
 *(15) UNIVERSITY OF CALIFORNIA SANTA BARBARA - SANTA BARBARA (USA)            *
 *(16) CURTIN UNIVERSITY - PERTH (AUSTRALIA)                                   *
 *(17) UNIVERSITY COLLEGE LONDON - LONDON (UK)                                 *
 *(18) CAMBRIDGE UNIVERSITY - CAMBRIDGE (UK)                                   *
 *                                                                             *
 *******************************************************************************
 EEEEEEEEEE STARTING  DATE 24 07 2022 TIME 12:29:58.8
 C:\use rs\sanoj\Temp\tmp_p\newconn.mol                                          

 CRYSTAL CALCULATION
 (INPUT ACCORDING TO THE INTERNATIONAL TABLES FOR X-RAY CRYSTALLOGRAPHY)
 CRYSTAL FAMILY                       :  MONOCLINIC  
 CRYSTAL CLASS  (GROTH - 1921)        :  MONOCLINIC SPHENOIDAL                

 SPACE GROUP (NONCENTROSYMMETRIC)     :  P 21            

 LATTICE PARAMETERS  (ANGSTROMS AND DEGREES) - CONVENTIONAL CELL
        A           B           C        ALPHA        BETA       GAMMA
     7.64180    13.60870    12.55600    90.00000   101.43300    90.00000


 NUMBER OF IRREDUCIBLE ATOMS IN THE CONVENTIONAL CELL:   54

 INPUT COORDINATES

 ATOM AT. N.              COORDINATES
   1  30     5.000000000000E-01  4.885000000000E-01  8.984000000000E-01
   2  30     1.960000000000E-01  3.824000000000E-01  3.000000000000E-04
   3  30     9.080000000000E-01  5.045000000000E-01  7.440000000000E-02
   4  30     7.280000000000E-01  7.377000000000E-01  5.738000000000E-01
   5  30     3.670000000000E-01  6.242000000000E-01  4.775000000000E-01
   6  30     9.860000000000E-01  2.540000000000E-01  5.845000000000E-01
   7   8     2.720000000000E-01  4.019000000000E-01  8.535000000000E-01
   8   6     2.280000000000E-01  3.591000000000E-01  7.619000000000E-01
   9   1     3.090000000000E-01  3.610000000000E-01  7.155000000000E-01
  10   8     8.700000000000E-02  3.155000000000E-01  7.304000000000E-01
  11   8     4.700000000000E-01  4.203000000000E-01  4.730000000000E-02
  12   6     5.790000000000E-01  4.114000000000E-01  1.377000000000E-01
  13   1     5.340000000000E-01  3.830000000000E-01  1.943000000000E-01
  14   8     7.360000000000E-01  4.365000000000E-01  1.579000000000E-01
  15   8     4.810000000000E-01  5.373000000000E-01  7.381000000000E-01
  16   6     6.010000000000E-01  5.762000000000E-01  7.021000000000E-01
  17   1     7.140000000000E-01  5.781000000000E-01  7.462000000000E-01
  18   8     5.810000000000E-01  6.144000000000E-01  6.078000000000E-01
  19   8     3.290000000000E-01  6.057000000000E-01  9.153000000000E-01
  20   6     1.920000000000E-01  6.081000000000E-01  9.570000000000E-01
  21   1     1.290000000000E-01  6.669000000000E-01  9.528000000000E-01
  22   8     1.340000000000E-01  5.378000000000E-01  3.700000000000E-03
  23   8     7.140000000000E-01  5.799000000000E-01  9.706000000000E-01
  24   6     6.980000000000E-01  6.742000000000E-01  9.594000000000E-01
  25   1     5.950000000000E-01  6.990000000000E-01  9.158000000000E-01
  26   8     8.130000000000E-01  7.333000000000E-01  3.400000000000E-03
  27   8     1.250000000000E-01  4.012000000000E-01  1.499000000000E-01
  28   6     1.480000000000E-01  3.601000000000E-01  2.418000000000E-01
  29   1     6.000000000000E-02  3.684000000000E-01  2.827000000000E-01
  30   8     2.830000000000E-01  3.083000000000E-01  2.825000000000E-01
  31   8     9.150000000000E-01  3.920000000000E-01  9.576000000000E-01
  32   6     8.050000000000E-01  3.501000000000E-01  8.850000000000E-01
  33   1     8.480000000000E-01  2.993000000000E-01  8.475000000000E-01
  34   8     6.430000000000E-01  3.707000000000E-01  8.586000000000E-01
  35   8     7.790000000000E-01  6.712000000000E-01  4.297000000000E-01
  36   6     6.840000000000E-01  6.121000000000E-01  3.648000000000E-01
  37   1     7.310000000000E-01  5.889000000000E-01  3.065000000000E-01
  38   8     5.330000000000E-01  5.826000000000E-01  3.730000000000E-01
  39   8     8.730000000000E-01  8.455000000000E-01  5.079000000000E-01
  40   6     8.500000000000E-01  9.382000000000E-01  4.985000000000E-01
  41   1     9.290000000000E-01  9.749000000000E-01  4.669000000000E-01
  42   8     7.250000000000E-01  9.817000000000E-01  5.299000000000E-01
  43   8     4.680000000000E-01  7.696000000000E-01  4.908000000000E-01
  44   6     3.780000000000E-01  8.495000000000E-01  4.786000000000E-01
  45   1     4.410000000000E-01  9.073000000000E-01  4.986000000000E-01
  46   8     2.150000000000E-01  8.573000000000E-01  4.424000000000E-01
  47   8     1.530000000000E-01  6.759000000000E-01  5.500000000000E-01
  48   6     1.120000000000E-01  6.553000000000E-01  6.411000000000E-01
  49   1     1.970000000000E-01  6.244000000000E-01  6.937000000000E-01
  50   8     9.620000000000E-01  6.744000000000E-01  6.636000000000E-01
  51   8     1.680000000000E-01  6.597000000000E-01  3.422000000000E-01
  52   6     1.280000000000E-01  6.080000000000E-01  2.550000000000E-01
  53   1     2.210000000000E-01  5.759000000000E-01  2.312000000000E-01
  54   8     9.750000000000E-01  5.982000000000E-01  2.006000000000E-01

 *******************************************************************************

 << INFORMATION >>: FROM NOW ON, ALL COORDINATES REFER TO THE PRIMITIVE CELL

 *******************************************************************************

 LATTICE PARAMETERS  (ANGSTROMS AND DEGREES) - PRIMITIVE CELL
       A          B          C        ALPHA      BETA     GAMMA        VOLUME
    7.64180   13.60870   12.55600    90.00000 101.43300  90.00000   1279.850774

 COORDINATES OF THE EQUIVALENT ATOMS (FRACTIONAL UNITS)

 N. ATOM EQUIV AT. N.          X                  Y                  Z

   1   1   1   30 ZN   -5.00000000000E-01  4.88500000000E-01 -1.01600000000E-01
   2   1   2   30 ZN    5.00000000000E-01 -1.15000000000E-02  1.01600000000E-01

   3   2   1   30 ZN    1.96000000000E-01  3.82400000000E-01  3.00000000000E-04
   4   2   2   30 ZN   -1.96000000000E-01 -1.17600000000E-01 -3.00000000000E-04

   5   3   1   30 ZN   -9.20000000000E-02 -4.95500000000E-01  7.44000000000E-02
   6   3   2   30 ZN    9.20000000000E-02  4.50000000000E-03 -7.44000000000E-02

   7   4   1   30 ZN   -2.72000000000E-01 -2.62300000000E-01 -4.26200000000E-01
   8   4   2   30 ZN    2.72000000000E-01  2.37700000000E-01  4.26200000000E-01

   9   5   1   30 ZN    3.67000000000E-01 -3.75800000000E-01  4.77500000000E-01
  10   5   2   30 ZN   -3.67000000000E-01  1.24200000000E-01 -4.77500000000E-01

  11   6   1   30 ZN   -1.40000000000E-02  2.54000000000E-01 -4.15500000000E-01
  12   6   2   30 ZN    1.40000000000E-02 -2.46000000000E-01  4.15500000000E-01

  13   7   1    8 O     2.72000000000E-01  4.01900000000E-01 -1.46500000000E-01
  14   7   2    8 O    -2.72000000000E-01 -9.81000000000E-02  1.46500000000E-01

  15   8   1    6 C     2.28000000000E-01  3.59100000000E-01 -2.38100000000E-01
  16   8   2    6 C    -2.28000000000E-01 -1.40900000000E-01  2.38100000000E-01

  17   9   1    1 H     3.09000000000E-01  3.61000000000E-01 -2.84500000000E-01
  18   9   2    1 H    -3.09000000000E-01 -1.39000000000E-01  2.84500000000E-01

  19  10   1    8 O     8.70000000000E-02  3.15500000000E-01 -2.69600000000E-01
  20  10   2    8 O    -8.70000000000E-02 -1.84500000000E-01  2.69600000000E-01

  21  11   1    8 O     4.70000000000E-01  4.20300000000E-01  4.73000000000E-02
  22  11   2    8 O    -4.70000000000E-01 -7.97000000000E-02 -4.73000000000E-02

  23  12   1    6 C    -4.21000000000E-01  4.11400000000E-01  1.37700000000E-01
  24  12   2    6 C     4.21000000000E-01 -8.86000000000E-02 -1.37700000000E-01

  25  13   1    1 H    -4.66000000000E-01  3.83000000000E-01  1.94300000000E-01
  26  13   2    1 H     4.66000000000E-01 -1.17000000000E-01 -1.94300000000E-01

  27  14   1    8 O    -2.64000000000E-01  4.36500000000E-01  1.57900000000E-01
  28  14   2    8 O     2.64000000000E-01 -6.35000000000E-02 -1.57900000000E-01

  29  15   1    8 O     4.81000000000E-01 -4.62700000000E-01 -2.61900000000E-01
  30  15   2    8 O    -4.81000000000E-01  3.73000000000E-02  2.61900000000E-01

  31  16   1    6 C    -3.99000000000E-01 -4.23800000000E-01 -2.97900000000E-01
  32  16   2    6 C     3.99000000000E-01  7.62000000000E-02  2.97900000000E-01

  33  17   1    1 H    -2.86000000000E-01 -4.21900000000E-01 -2.53800000000E-01
  34  17   2    1 H     2.86000000000E-01  7.81000000000E-02  2.53800000000E-01

  35  18   1    8 O    -4.19000000000E-01 -3.85600000000E-01 -3.92200000000E-01
  36  18   2    8 O     4.19000000000E-01  1.14400000000E-01  3.92200000000E-01

  37  19   1    8 O     3.29000000000E-01 -3.94300000000E-01 -8.47000000000E-02
  38  19   2    8 O    -3.29000000000E-01  1.05700000000E-01  8.47000000000E-02

  39  20   1    6 C     1.92000000000E-01 -3.91900000000E-01 -4.30000000000E-02
  40  20   2    6 C    -1.92000000000E-01  1.08100000000E-01  4.30000000000E-02

  41  21   1    1 H     1.29000000000E-01 -3.33100000000E-01 -4.72000000000E-02
  42  21   2    1 H    -1.29000000000E-01  1.66900000000E-01  4.72000000000E-02

  43  22   1    8 O     1.34000000000E-01 -4.62200000000E-01  3.70000000000E-03
  44  22   2    8 O    -1.34000000000E-01  3.78000000000E-02 -3.70000000000E-03

  45  23   1    8 O    -2.86000000000E-01 -4.20100000000E-01 -2.94000000000E-02
  46  23   2    8 O     2.86000000000E-01  7.99000000000E-02  2.94000000000E-02

  47  24   1    6 C    -3.02000000000E-01 -3.25800000000E-01 -4.06000000000E-02
  48  24   2    6 C     3.02000000000E-01  1.74200000000E-01  4.06000000000E-02

  49  25   1    1 H    -4.05000000000E-01 -3.01000000000E-01 -8.42000000000E-02
  50  25   2    1 H     4.05000000000E-01  1.99000000000E-01  8.42000000000E-02

  51  26   1    8 O    -1.87000000000E-01 -2.66700000000E-01  3.40000000000E-03
  52  26   2    8 O     1.87000000000E-01  2.33300000000E-01 -3.40000000000E-03

  53  27   1    8 O     1.25000000000E-01  4.01200000000E-01  1.49900000000E-01
  54  27   2    8 O    -1.25000000000E-01 -9.88000000000E-02 -1.49900000000E-01

  55  28   1    6 C     1.48000000000E-01  3.60100000000E-01  2.41800000000E-01
  56  28   2    6 C    -1.48000000000E-01 -1.39900000000E-01 -2.41800000000E-01

  57  29   1    1 H     6.00000000000E-02  3.68400000000E-01  2.82700000000E-01
  58  29   2    1 H    -6.00000000000E-02 -1.31600000000E-01 -2.82700000000E-01

  59  30   1    8 O     2.83000000000E-01  3.08300000000E-01  2.82500000000E-01
  60  30   2    8 O    -2.83000000000E-01 -1.91700000000E-01 -2.82500000000E-01

  61  31   1    8 O    -8.50000000000E-02  3.92000000000E-01 -4.24000000000E-02
  62  31   2    8 O     8.50000000000E-02 -1.08000000000E-01  4.24000000000E-02

  63  32   1    6 C    -1.95000000000E-01  3.50100000000E-01 -1.15000000000E-01
  64  32   2    6 C     1.95000000000E-01 -1.49900000000E-01  1.15000000000E-01

  65  33   1    1 H    -1.52000000000E-01  2.99300000000E-01 -1.52500000000E-01
  66  33   2    1 H     1.52000000000E-01 -2.00700000000E-01  1.52500000000E-01

  67  34   1    8 O    -3.57000000000E-01  3.70700000000E-01 -1.41400000000E-01
  68  34   2    8 O     3.57000000000E-01 -1.29300000000E-01  1.41400000000E-01

  69  35   1    8 O    -2.21000000000E-01 -3.28800000000E-01  4.29700000000E-01
  70  35   2    8 O     2.21000000000E-01  1.71200000000E-01 -4.29700000000E-01

  71  36   1    6 C    -3.16000000000E-01 -3.87900000000E-01  3.64800000000E-01
  72  36   2    6 C     3.16000000000E-01  1.12100000000E-01 -3.64800000000E-01

  73  37   1    1 H    -2.69000000000E-01 -4.11100000000E-01  3.06500000000E-01
  74  37   2    1 H     2.69000000000E-01  8.89000000000E-02 -3.06500000000E-01

  75  38   1    8 O    -4.67000000000E-01 -4.17400000000E-01  3.73000000000E-01
  76  38   2    8 O     4.67000000000E-01  8.26000000000E-02 -3.73000000000E-01

  77  39   1    8 O    -1.27000000000E-01 -1.54500000000E-01 -4.92100000000E-01
  78  39   2    8 O     1.27000000000E-01  3.45500000000E-01  4.92100000000E-01

  79  40   1    6 C    -1.50000000000E-01 -6.18000000000E-02  4.98500000000E-01
  80  40   2    6 C     1.50000000000E-01  4.38200000000E-01 -4.98500000000E-01

  81  41   1    1 H    -7.10000000000E-02 -2.51000000000E-02  4.66900000000E-01
  82  41   2    1 H     7.10000000000E-02  4.74900000000E-01 -4.66900000000E-01

  83  42   1    8 O    -2.75000000000E-01 -1.83000000000E-02 -4.70100000000E-01
  84  42   2    8 O     2.75000000000E-01  4.81700000000E-01  4.70100000000E-01

  85  43   1    8 O     4.68000000000E-01 -2.30400000000E-01  4.90800000000E-01
  86  43   2    8 O    -4.68000000000E-01  2.69600000000E-01 -4.90800000000E-01

  87  44   1    6 C     3.78000000000E-01 -1.50500000000E-01  4.78600000000E-01
  88  44   2    6 C    -3.78000000000E-01  3.49500000000E-01 -4.78600000000E-01

  89  45   1    1 H     4.41000000000E-01 -9.27000000000E-02  4.98600000000E-01
  90  45   2    1 H    -4.41000000000E-01  4.07300000000E-01 -4.98600000000E-01

  91  46   1    8 O     2.15000000000E-01 -1.42700000000E-01  4.42400000000E-01
  92  46   2    8 O    -2.15000000000E-01  3.57300000000E-01 -4.42400000000E-01

  93  47   1    8 O     1.53000000000E-01 -3.24100000000E-01 -4.50000000000E-01
  94  47   2    8 O    -1.53000000000E-01  1.75900000000E-01  4.50000000000E-01

  95  48   1    6 C     1.12000000000E-01 -3.44700000000E-01 -3.58900000000E-01
  96  48   2    6 C    -1.12000000000E-01  1.55300000000E-01  3.58900000000E-01

  97  49   1    1 H     1.97000000000E-01 -3.75600000000E-01 -3.06300000000E-01
  98  49   2    1 H    -1.97000000000E-01  1.24400000000E-01  3.06300000000E-01

  99  50   1    8 O    -3.80000000000E-02 -3.25600000000E-01 -3.36400000000E-01
 100  50   2    8 O     3.80000000000E-02  1.74400000000E-01  3.36400000000E-01

 101  51   1    8 O     1.68000000000E-01 -3.40300000000E-01  3.42200000000E-01
 102  51   2    8 O    -1.68000000000E-01  1.59700000000E-01 -3.42200000000E-01

 103  52   1    6 C     1.28000000000E-01 -3.92000000000E-01  2.55000000000E-01
 104  52   2    6 C    -1.28000000000E-01  1.08000000000E-01 -2.55000000000E-01

 105  53   1    1 H     2.21000000000E-01 -4.24100000000E-01  2.31200000000E-01
 106  53   2    1 H    -2.21000000000E-01  7.59000000000E-02 -2.31200000000E-01

 107  54   1    8 O    -2.50000000000E-02 -4.01800000000E-01  2.00600000000E-01
 108  54   2    8 O     2.50000000000E-02  9.82000000000E-02 -2.00600000000E-01

 NUMBER OF SYMMETRY OPERATORS         :    2
 *******************************************************************************
 * GEOMETRY EDITING - INPUT COORDINATES ARE GIVEN IN ANGSTROM         
 *******************************************************************************

 GEOMETRY NOW FULLY CONSISTENT WITH THE GROUP
 *******************************************************************************
 *  GEOMETRY EDITING
 *  THE SYMMETRY OF THE CRYSTAL IS KEPT AND APPLIED TO THE PERTURBATION
 *******************************************************************************
 INFORMATION **** NEW DEFAULT **** FINALRUN 4 FOR GEOMETRY OPTIMIZATIONS
 INFORMATION **** NEW DEFAULT **** OPTGEOM OPTIMIZES BOTH ATOMIC COORDINATES AND CELL PARAMETERS
 INFORMATION **** NEW DEFAULT **** TOL. ON ATOMIC DISP TO REDEFINE REF. GEOMETRY: 0.8 Angs
 INFORMATION **** NEW DEFAULT **** N POINTS TO REDEFINE REF. GEOMETRY: N OF OPT DEGS OF FREEDOM
 INFORMATION **** NEW DEFAULT **** TOL. ON ENERGY TO REDEFINE REF. GEOMETRY: 10**-3*(5*N. ATOMS)

 IMPORTANT INFORMATION:
 THE COORDINATE SYSTEM ADOPTED IN THE OPTIMIZATION IS NOT IN
 GENERAL HOMOGENEOUS UNITS. FOR THIS REASON THE GRADIENT AND 
 HESSIAN MATRIX IN TERMS OF THIS SYSTEM ARE GIVEN WITHOUT
 UNITS. FOR MORE DETAILS SEE THE MANUAL.

 *******************************************************************************
 COMBINED CELL/ATOM OPTIMIZATION CONTROL

 INITIAL TRUST RADIUS         0.50000 MAXIMUM TRUST RADIUS               4.00000
 MAXIMUM GRADIENT COMPONENT   0.00045 MAXIMUM DISPLACEMENT COMPONENT     0.00180
 R.M.S. OF GRADIENT COMPONENT 0.00030 R.M.S. OF DISPLACEMENT COMPONENTS  0.00120
 THRESHOLD ON ENERGY CHANGE 0.100E-06 EXTRAPOLATING POLYNOMIAL ORDER           2
 MAXIMUM ALLOWED NUMBER OF STEPS   -1 SORTING OF ENERGY POINTS:               NO
 ANALYTICAL  GRADIENT                 HESSIAN UPDATING                      BFGS
 STEP SIZE NUMERICAL GRADIENT 0.00100
 INITIAL HESSIAN MATRIX: SCHLEGEL MODEL 2
 *******************************************************************************


 GCALCO - MAX INDICES DIRECT LATTICE VECTOR    21    11    13
 NO.OF VECTORS CREATED 6999 STARS 1894 RMAX   243.31206 BOHR

 GEOMETRY FOR WAVE FUNCTION - DIMENSIONALITY OF THE SYSTEM    3
 (NON PERIODIC DIRECTION: LATTICE PARAMETER FORMALLY SET TO 500)
 *******************************************************************************
 LATTICE PARAMETERS (ANGSTROMS AND DEGREES) - BOHR = 0.5291772083 ANGSTROM
 PRIMITIVE CELL - CENTRING CODE 1/0 VOLUME=  1279.850774 - DENSITY  2.397 g/cm^3
         A              B              C           ALPHA      BETA       GAMMA 
     7.64180000    13.60870000    12.55600000    90.000000 101.433000  90.000000
 *******************************************************************************
 ATOMS IN THE ASYMMETRIC UNIT   54 - ATOMS IN THE UNIT CELL:  108
     ATOM                 X/A                 Y/B                 Z/C    
 *******************************************************************************
      1 T  30 ZN   -5.000000000000E-01  4.885000000000E-01 -1.016000000000E-01
      2 F  30 ZN   -5.000000000000E-01 -1.150000000000E-02  1.016000000000E-01
      3 T  30 ZN    1.960000000000E-01  3.824000000000E-01  3.000000000000E-04
      4 F  30 ZN   -1.960000000000E-01 -1.176000000000E-01 -3.000000000000E-04
      5 T  30 ZN   -9.200000000000E-02 -4.955000000000E-01  7.440000000000E-02
      6 F  30 ZN    9.200000000000E-02  4.500000000000E-03 -7.440000000000E-02
      7 T  30 ZN   -2.720000000000E-01 -2.623000000000E-01 -4.262000000000E-01
      8 F  30 ZN    2.720000000000E-01  2.377000000000E-01  4.262000000000E-01
      9 T  30 ZN    3.670000000000E-01 -3.758000000000E-01  4.775000000000E-01
     10 F  30 ZN   -3.670000000000E-01  1.242000000000E-01 -4.775000000000E-01
     11 T  30 ZN   -1.400000000000E-02  2.540000000000E-01 -4.155000000000E-01
     12 F  30 ZN    1.400000000000E-02 -2.460000000000E-01  4.155000000000E-01
     13 T   8 O     2.720000000000E-01  4.019000000000E-01 -1.465000000000E-01
     14 F   8 O    -2.720000000000E-01 -9.810000000000E-02  1.465000000000E-01
     15 T   6 C     2.280000000000E-01  3.591000000000E-01 -2.381000000000E-01
     16 F   6 C    -2.280000000000E-01 -1.409000000000E-01  2.381000000000E-01
     17 T   1 H     3.090000000000E-01  3.610000000000E-01 -2.845000000000E-01
     18 F   1 H    -3.090000000000E-01 -1.390000000000E-01  2.845000000000E-01
     19 T   8 O     8.700000000000E-02  3.155000000000E-01 -2.696000000000E-01
     20 F   8 O    -8.700000000000E-02 -1.845000000000E-01  2.696000000000E-01
     21 T   8 O     4.700000000000E-01  4.203000000000E-01  4.730000000000E-02
     22 F   8 O    -4.700000000000E-01 -7.970000000000E-02 -4.730000000000E-02
     23 T   6 C    -4.210000000000E-01  4.114000000000E-01  1.377000000000E-01
     24 F   6 C     4.210000000000E-01 -8.860000000000E-02 -1.377000000000E-01
     25 T   1 H    -4.660000000000E-01  3.830000000000E-01  1.943000000000E-01
     26 F   1 H     4.660000000000E-01 -1.170000000000E-01 -1.943000000000E-01
     27 T   8 O    -2.640000000000E-01  4.365000000000E-01  1.579000000000E-01
     28 F   8 O     2.640000000000E-01 -6.350000000000E-02 -1.579000000000E-01
     29 T   8 O     4.810000000000E-01 -4.627000000000E-01 -2.619000000000E-01
     30 F   8 O    -4.810000000000E-01  3.730000000000E-02  2.619000000000E-01
     31 T   6 C    -3.990000000000E-01 -4.238000000000E-01 -2.979000000000E-01
     32 F   6 C     3.990000000000E-01  7.620000000000E-02  2.979000000000E-01
     33 T   1 H    -2.860000000000E-01 -4.219000000000E-01 -2.538000000000E-01
     34 F   1 H     2.860000000000E-01  7.810000000000E-02  2.538000000000E-01
     35 T   8 O    -4.190000000000E-01 -3.856000000000E-01 -3.922000000000E-01
     36 F   8 O     4.190000000000E-01  1.144000000000E-01  3.922000000000E-01
     37 T   8 O     3.290000000000E-01 -3.943000000000E-01 -8.470000000000E-02
     38 F   8 O    -3.290000000000E-01  1.057000000000E-01  8.470000000000E-02
     39 T   6 C     1.920000000000E-01 -3.919000000000E-01 -4.300000000000E-02
     40 F   6 C    -1.920000000000E-01  1.081000000000E-01  4.300000000000E-02
     41 T   1 H     1.290000000000E-01 -3.331000000000E-01 -4.720000000000E-02
     42 F   1 H    -1.290000000000E-01  1.669000000000E-01  4.720000000000E-02
     43 T   8 O     1.340000000000E-01 -4.622000000000E-01  3.700000000000E-03
     44 F   8 O    -1.340000000000E-01  3.780000000000E-02 -3.700000000000E-03
     45 T   8 O    -2.860000000000E-01 -4.201000000000E-01 -2.940000000000E-02
     46 F   8 O     2.860000000000E-01  7.990000000000E-02  2.940000000000E-02
     47 T   6 C    -3.020000000000E-01 -3.258000000000E-01 -4.060000000000E-02
     48 F   6 C     3.020000000000E-01  1.742000000000E-01  4.060000000000E-02
     49 T   1 H    -4.050000000000E-01 -3.010000000000E-01 -8.420000000000E-02
     50 F   1 H     4.050000000000E-01  1.990000000000E-01  8.420000000000E-02
     51 T   8 O    -1.870000000000E-01 -2.667000000000E-01  3.400000000000E-03
     52 F   8 O     1.870000000000E-01  2.333000000000E-01 -3.400000000000E-03
     53 T   8 O     1.250000000000E-01  4.012000000000E-01  1.499000000000E-01
     54 F   8 O    -1.250000000000E-01 -9.880000000000E-02 -1.499000000000E-01
     55 T   6 C     1.480000000000E-01  3.601000000000E-01  2.418000000000E-01
     56 F   6 C    -1.480000000000E-01 -1.399000000000E-01 -2.418000000000E-01
     57 T   1 H     6.000000000000E-02  3.684000000000E-01  2.827000000000E-01
     58 F   1 H    -6.000000000000E-02 -1.316000000000E-01 -2.827000000000E-01
     59 T   8 O     2.830000000000E-01  3.083000000000E-01  2.825000000000E-01
     60 F   8 O    -2.830000000000E-01 -1.917000000000E-01 -2.825000000000E-01
     61 T   8 O    -8.500000000000E-02  3.920000000000E-01 -4.240000000000E-02
     62 F   8 O     8.500000000000E-02 -1.080000000000E-01  4.240000000000E-02
     63 T   6 C    -1.950000000000E-01  3.501000000000E-01 -1.150000000000E-01
     64 F   6 C     1.950000000000E-01 -1.499000000000E-01  1.150000000000E-01
     65 T   1 H    -1.520000000000E-01  2.993000000000E-01 -1.525000000000E-01
     66 F   1 H     1.520000000000E-01 -2.007000000000E-01  1.525000000000E-01
     67 T   8 O    -3.570000000000E-01  3.707000000000E-01 -1.414000000000E-01
     68 F   8 O     3.570000000000E-01 -1.293000000000E-01  1.414000000000E-01
     69 T   8 O    -2.210000000000E-01 -3.288000000000E-01  4.297000000000E-01
     70 F   8 O     2.210000000000E-01  1.712000000000E-01 -4.297000000000E-01
     71 T   6 C    -3.160000000000E-01 -3.879000000000E-01  3.648000000000E-01
     72 F   6 C     3.160000000000E-01  1.121000000000E-01 -3.648000000000E-01
     73 T   1 H    -2.690000000000E-01 -4.111000000000E-01  3.065000000000E-01
     74 F   1 H     2.690000000000E-01  8.890000000000E-02 -3.065000000000E-01
     75 T   8 O    -4.670000000000E-01 -4.174000000000E-01  3.730000000000E-01
     76 F   8 O     4.670000000000E-01  8.260000000000E-02 -3.730000000000E-01
     77 T   8 O    -1.270000000000E-01 -1.545000000000E-01 -4.921000000000E-01
     78 F   8 O     1.270000000000E-01  3.455000000000E-01  4.921000000000E-01
     79 T   6 C    -1.500000000000E-01 -6.180000000000E-02  4.985000000000E-01
     80 F   6 C     1.500000000000E-01  4.382000000000E-01 -4.985000000000E-01
     81 T   1 H    -7.100000000000E-02 -2.510000000000E-02  4.669000000000E-01
     82 F   1 H     7.100000000000E-02  4.749000000000E-01 -4.669000000000E-01
     83 T   8 O    -2.750000000000E-01 -1.830000000000E-02 -4.701000000000E-01
     84 F   8 O     2.750000000000E-01  4.817000000000E-01  4.701000000000E-01
     85 T   8 O     4.680000000000E-01 -2.304000000000E-01  4.908000000000E-01
     86 F   8 O    -4.680000000000E-01  2.696000000000E-01 -4.908000000000E-01
     87 T   6 C     3.780000000000E-01 -1.505000000000E-01  4.786000000000E-01
     88 F   6 C    -3.780000000000E-01  3.495000000000E-01 -4.786000000000E-01
     89 T   1 H     4.410000000000E-01 -9.270000000000E-02  4.986000000000E-01
     90 F   1 H    -4.410000000000E-01  4.073000000000E-01 -4.986000000000E-01
     91 T   8 O     2.150000000000E-01 -1.427000000000E-01  4.424000000000E-01
     92 F   8 O    -2.150000000000E-01  3.573000000000E-01 -4.424000000000E-01
     93 T   8 O     1.530000000000E-01 -3.241000000000E-01 -4.500000000000E-01
     94 F   8 O    -1.530000000000E-01  1.759000000000E-01  4.500000000000E-01
     95 T   6 C     1.120000000000E-01 -3.447000000000E-01 -3.589000000000E-01
     96 F   6 C    -1.120000000000E-01  1.553000000000E-01  3.589000000000E-01
     97 T   1 H     1.970000000000E-01 -3.756000000000E-01 -3.063000000000E-01
     98 F   1 H    -1.970000000000E-01  1.244000000000E-01  3.063000000000E-01
     99 T   8 O    -3.800000000000E-02 -3.256000000000E-01 -3.364000000000E-01
    100 F   8 O     3.800000000000E-02  1.744000000000E-01  3.364000000000E-01
    101 T   8 O     1.680000000000E-01 -3.403000000000E-01  3.422000000000E-01
    102 F   8 O    -1.680000000000E-01  1.597000000000E-01 -3.422000000000E-01
    103 T   6 C     1.280000000000E-01 -3.920000000000E-01  2.550000000000E-01
    104 F   6 C    -1.280000000000E-01  1.080000000000E-01 -2.550000000000E-01
    105 T   1 H     2.210000000000E-01 -4.241000000000E-01  2.312000000000E-01
    106 F   1 H    -2.210000000000E-01  7.590000000000E-02 -2.312000000000E-01
    107 T   8 O    -2.500000000000E-02 -4.018000000000E-01  2.006000000000E-01
    108 F   8 O     2.500000000000E-02  9.820000000000E-02 -2.006000000000E-01

 T = ATOM BELONGING TO THE ASYMMETRIC UNIT

 ****    2 SYMMOPS - TRANSLATORS IN FRACTIONAL UNITS
 **** MATRICES AND TRANSLATORS IN THE CRYSTALLOGRAPHIC REFERENCE FRAME
   V INV                    ROTATION MATRICES                   TRANSLATORS
   1   1  1.00  0.00  0.00  0.00  1.00  0.00  0.00  0.00  1.00  0.00  0.00  0.00
   2   2 -1.00  0.00  0.00  0.00  1.00  0.00  0.00  0.00 -1.00  0.00  0.50  0.00

 DIRECT LATTICE VECTORS CARTESIAN COMPONENTS (ANGSTROM)
          X                    Y                    Z
   0.764180000000E+01   0.467925295486E-15   0.000000000000E+00
   0.000000000000E+00   0.136087000000E+02   0.000000000000E+00
  -0.248887421694E+01   0.768833260505E-15   0.123068534213E+02


 CARTESIAN COORDINATES - PRIMITIVE CELL
 *******************************************************************************
 *      ATOM          X(ANGSTROM)         Y(ANGSTROM)         Z(ANGSTROM)
 *******************************************************************************
    1    30 ZN    4.073769620442E+00  6.647849950000E+00 -1.250376307599E+00
    2    30 ZN    3.568030379558E+00 -1.565000500000E-01  1.250376307599E+00
    3    30 ZN    1.497046137735E+00  5.203966880000E+00  3.692056026376E-03
    4    30 ZN   -1.497046137735E+00 -1.600383120000E+00 -3.692056026376E-03
    5    30 ZN   -8.882178417407E-01 -6.743110850000E+00  9.156298945413E-01
    6    30 ZN    8.882178417407E-01  6.123915000000E-02 -9.156298945413E-01
    7    30 ZN   -1.017811408738E+00 -3.569562010000E+00 -5.245180928138E+00
    8    30 ZN    1.017811408738E+00  3.234787990000E+00  5.245180928138E+00
    9    30 ZN    1.616103161409E+00 -5.114149460000E+00  5.876522508649E+00
   10    30 ZN   -1.616103161409E+00  1.690200540000E+00 -5.876522508649E+00
   11    30 ZN    9.271420371405E-01  3.456609800000E+00 -5.113497596531E+00
   12    30 ZN   -9.271420371405E-01 -3.347740200000E+00  5.113497596531E+00
   13     8 O     2.443189672782E+00  5.469336530000E+00 -1.802954026214E+00
   14     8 O    -2.443189672782E+00 -1.335013470000E+00  1.802954026214E+00
   15     6 C     2.334931351055E+00  4.886884170000E+00 -2.930261799601E+00
   16     6 C    -2.334931351055E+00 -1.917465830000E+00  2.930261799601E+00
   17     1 H     3.069400914721E+00  4.912740700000E+00 -3.501299798347E+00
   18     1 H    -3.069400914721E+00 -1.891609300000E+00  3.501299798347E+00
   19     8 O     1.335837088888E+00  4.293544850000E+00 -3.317927682370E+00
   20     8 O    -1.335837088888E+00 -2.510805150000E+00  3.317927682370E+00
   21     8 O     3.473922249539E+00  5.719736610000E+00  5.821141668253E-01
   22     8 O    -3.473922249539E+00 -1.084613390000E+00 -5.821141668253E-01
   23     6 C    -3.559915779673E+00  5.598619180000E+00  1.694653716107E+00
   24     6 C     3.559915779673E+00 -1.205730820000E+00 -1.694653716107E+00
   25     1 H     3.597132939648E+00  5.212132100000E+00  2.391221619750E+00
   26     1 H    -3.597132939648E+00 -1.592217900000E+00 -2.391221619750E+00
   27     8 O    -2.410428438856E+00  5.940197550000E+00  1.943252155216E+00
   28     8 O     2.410428438856E+00 -8.641524500000E-01 -1.943252155216E+00
   29     8 O    -3.314258042582E+00 -6.296745490000E+00 -3.223164911026E+00
   30     8 O     3.314258042582E+00  5.076045100000E-01  3.223164911026E+00
   31     6 C    -2.307642570772E+00 -5.767367060000E+00 -3.666211634192E+00
   32     6 C     2.307642570772E+00  1.036982940000E+00  3.666211634192E+00
   33     1 H    -1.553878523739E+00 -5.741510530000E+00 -3.123479398314E+00
   34     1 H     1.553878523739E+00  1.062839470000E+00  3.123479398314E+00
   35     8 O    -2.225777732114E+00 -5.247514720000E+00 -4.826747911816E+00
   36     8 O     2.225777732114E+00  1.556835280000E+00  4.826747911816E+00
   37     8 O     2.724959846175E+00 -5.365910410000E+00 -1.042390484780E+00
   38     8 O    -2.724959846175E+00  1.438439590000E+00  1.042390484780E+00
   39     6 C     1.574247191329E+00 -5.333249530000E+00 -5.291946971139E-01
   40     6 C    -1.574247191329E+00  1.471100470000E+00  5.291946971139E-01
   41     1 H     1.103267063040E+00 -4.533057970000E+00 -5.808834814832E-01
   42     1 H    -1.103267063040E+00  2.271292030000E+00  5.808834814832E-01
   43     8 O     1.014792365397E+00 -6.289941140000E+00  4.553535765864E-02
   44     8 O    -1.014792365397E+00  5.144088600000E-01 -4.553535765864E-02
   45     8 O    -2.112381898022E+00 -5.717014870000E+00 -3.618214905849E-01
   46     8 O     2.112381898022E+00  1.087335130000E+00  3.618214905849E-01
   47     6 C    -2.206775306792E+00 -4.433714460000E+00 -4.996582489029E-01
   48     6 C     2.206775306792E+00  2.370635540000E+00  4.996582489029E-01
   49     1 H    -2.885365790933E+00 -4.096218700000E+00 -1.036237058070E+00
   50     1 H     2.885365790933E+00  2.708131300000E+00  1.036237058070E+00
   51     8 O    -1.437478772338E+00 -3.629440290000E+00  4.184330163226E-02
   52     8 O     1.437478772338E+00  3.174909710000E+00 -4.184330163226E-02
   53     8 O     5.821427548800E-01  5.459810440000E+00  1.844797327846E+00
   54     8 O    -5.821427548800E-01 -1.344539560000E+00 -1.844797327846E+00
   55     6 C     5.291766143428E-01  4.900492870000E+00  2.975797157259E+00
   56     6 C    -5.291766143428E-01 -1.903857130000E+00 -2.975797157259E+00
   57     1 H    -2.450967411302E-01  5.013445080000E+00  3.479147462188E+00
   58     1 H     2.450967411302E-01 -1.790904920000E+00 -3.479147462188E+00
   59     8 O     1.459522433713E+00  4.195562210000E+00  3.476686091504E+00
   60     8 O    -1.459522433713E+00 -2.608787790000E+00 -3.476686091504E+00
   61     8 O    -5.440247332015E-01  5.334610400000E+00 -5.218105850612E-01
   62     8 O     5.440247332015E-01 -1.469739600000E+00  5.218105850612E-01
   63     6 C    -1.203930465051E+00  4.764405870000E+00 -1.415288143444E+00
   64     6 C     1.203930465051E+00 -2.039944130000E+00  1.415288143444E+00
   65     1 H    -7.820002819159E-01  4.073083910000E+00 -1.876795146741E+00
   66     1 H     7.820002819159E-01 -2.731266090000E+00  1.876795146741E+00
   67     8 O    -2.376195785724E+00  5.044745090000E+00 -1.740189073765E+00
   68     8 O     2.376195785724E+00 -1.759604910000E+00  1.740189073765E+00
   69     8 O    -2.758307051021E+00 -4.474540560000E+00  5.288254915113E+00
   70     8 O     2.758307051021E+00  2.329809440000E+00 -5.288254915113E+00
   71     6 C    -3.322750114341E+00 -5.278814730000E+00  4.489540128073E+00
   72     6 C     3.322750114341E+00  1.525535270000E+00 -4.489540128073E+00
   73     1 H    -2.818484147494E+00 -5.594536570000E+00  3.772050573614E+00
   74     1 H     2.818484147494E+00  1.209813430000E+00 -3.772050573614E+00
   75     8 O     3.144729317080E+00 -5.680271380000E+00  4.590456326128E+00
   76     8 O    -3.144729317080E+00  1.124078620000E+00 -4.590456326128E+00
   77     8 O     2.542664021584E-01 -2.102544150000E+00 -6.056202568599E+00
   78     8 O    -2.542664021584E-01  4.701805850000E+00  6.056202568599E+00
   79     6 C     1.019004197977E-01 -8.410176600000E-01 -6.171886990759E+00
   80     6 C    -1.019004197977E-01  5.963332340000E+00  6.171886990759E+00
   81     1 H    -1.704623171891E+00 -3.415783700000E-01  5.746069862383E+00
   82     1 H     1.704623171891E+00  6.462771630000E+00 -5.746069862383E+00
   83     8 O    -9.314752306143E-01 -2.490392100000E-01 -5.785451793331E+00
   84     8 O     9.314752306143E-01  6.555310790000E+00  5.785451793331E+00
   85     8 O     2.354822934324E+00 -3.135444480000E+00  6.040203659151E+00
   86     8 O    -2.354822934324E+00  3.668905520000E+00 -6.040203659151E+00
   87     6 C     1.697425199770E+00 -2.048109350000E+00  5.890060047412E+00
   88     6 C    -1.697425199770E+00  4.756240650000E+00 -5.890060047412E+00
   89     1 H     2.129081115431E+00 -1.261526490000E+00  6.136197115837E+00
   90     1 H    -2.129081115431E+00  5.542823510000E+00 -6.136197115837E+00
   91     8 O     5.419090464237E-01 -1.941961490000E+00  5.444551953563E+00
   92     8 O    -5.419090464237E-01  4.862388510000E+00 -5.444551953563E+00
   93     8 O     2.289188797625E+00 -4.410579670000E+00 -5.538084039564E+00
   94     8 O    -2.289188797625E+00  2.393770330000E+00  5.538084039564E+00
   95     6 C     1.749138556461E+00 -4.690918890000E+00 -4.416929692888E+00
   96     6 C    -1.749138556461E+00  2.113431110000E+00  4.416929692888E+00
   97     1 H     2.267776772650E+00 -5.111427720000E+00 -3.769589202930E+00
   98     1 H    -2.267776772650E+00  1.692922280000E+00  3.769589202930E+00
   99     8 O     5.468688865802E-01 -4.430992720000E+00 -4.140025490910E+00
  100     8 O    -5.468688865802E-01  2.373357280000E+00  4.140025490910E+00
  101     8 O     4.321296429616E-01 -4.631040610000E+00  4.211405240753E+00
  102     8 O    -4.321296429616E-01  2.173309390000E+00 -4.211405240753E+00
  103     6 C     3.434874746791E-01 -5.334610400000E+00  3.138247622420E+00
  104     6 C    -3.434874746791E-01  1.469739600000E+00 -3.138247622420E+00
  105     1 H     1.113410081042E+00 -5.771449670000E+00  2.845344510994E+00
  106     1 H    -1.113410081042E+00  1.032900330000E+00 -2.845344510994E+00
  107     8 O    -6.903131679191E-01 -5.467975660000E+00  2.468754796304E+00
  108     8 O     6.903131679191E-01  1.336374340000E+00 -2.468754796304E+00

 *******************************************************************************
 STARTING BASIS SET HANDLING 
 *******************************************************************************

 Loading internal basis set: POB-DZVPP           

 Please cite in your publication:
 Peintinger, M. F., Oliveira, D. V. and Bredow, T. (2013), Generally applicable 
 solid-state Gaussian basis sets, in preparation                                
                                                                                
                    

 *******************************************************************************
 LOCAL ATOMIC FUNCTIONS BASIS SET
 *******************************************************************************
   ATOM   X(AU)   Y(AU)   Z(AU)  N. TYPE  EXPONENT  S COEF   P COEF   D/F/G COEF
 *******************************************************************************
   1 ZN   7.698  12.563  -2.363
                                  1 S  
                                         8.200E+04 1.421E-03 0.000E+00 0.000E+00
                                         1.231E+04 1.089E-02 0.000E+00 0.000E+00
                                         2.801E+03 5.406E-02 0.000E+00 0.000E+00
                                         7.910E+02 1.885E-01 0.000E+00 0.000E+00
                                         2.576E+02 3.835E-01 0.000E+00 0.000E+00
                                         8.881E+01 2.972E-01 0.000E+00 0.000E+00
                                  2 S  
                                         1.719E+02-1.105E-01 0.000E+00 0.000E+00
                                         2.030E+01 6.461E-01 0.000E+00 0.000E+00
                                         8.346E+00 4.422E-01 0.000E+00 0.000E+00
                                  3 S  
                                         1.485E+01-2.271E-01 0.000E+00 0.000E+00
                                         2.450E+00 7.243E-01 0.000E+00 0.000E+00
                                         9.985E-01 4.484E-01 0.000E+00 0.000E+00
                                  4 S  
                                         1.493E+00 1.000E+00 0.000E+00 0.000E+00
                                  5 S  
                                         1.830E-01 1.000E+00 0.000E+00 0.000E+00
                           6-     8 P  
                                         1.072E+03 0.000E+00 9.277E-03 0.000E+00
                                         2.527E+02 0.000E+00 6.954E-02 0.000E+00
                                         8.010E+01 0.000E+00 2.716E-01 0.000E+00
                                         2.890E+01 0.000E+00 5.340E-01 0.000E+00
                                         1.077E+01 0.000E+00 3.450E-01 0.000E+00
                           9-    11 P  
                                         5.645E+00 0.000E+00 3.413E-01 0.000E+00
                                         2.168E+00 0.000E+00 5.639E-01 0.000E+00
                                         8.054E-01 0.000E+00 2.368E-01 0.000E+00
                          12-    14 P  
                                         2.721E-01 0.000E+00 1.000E+00 0.000E+00
                          15-    19 D  
                                         5.609E+01 0.000E+00 0.000E+00 2.959E-02
                                         1.575E+01 0.000E+00 0.000E+00 1.587E-01
                                         5.312E+00 0.000E+00 0.000E+00 3.798E-01
                                         1.774E+00 0.000E+00 0.000E+00 4.690E-01
                          20-    24 D  
                                         5.073E-01 0.000E+00 0.000E+00 1.000E+00
                          25-    31 F  
                                         2.814E+00 0.000E+00 0.000E+00 1.000E+00
                          32-    38 F  
                                         1.300E+00 0.000E+00 0.000E+00 1.000E+00
   2 ZN   6.743  -0.296   2.363
   3 ZN   2.829   9.834   0.007
   4 ZN  -2.829  -3.024  -0.007
   5 ZN  -1.678 -12.743   1.730
   6 ZN   1.678   0.116  -1.730
   7 ZN  -1.923  -6.745  -9.912
   8 ZN   1.923   6.113   9.912
   9 ZN   3.054  -9.664  11.105
  10 ZN  -3.054   3.194 -11.105
  11 ZN   1.752   6.532  -9.663
  12 ZN  -1.752  -6.326   9.663
  13 O    4.617  10.336  -3.407
                                457 S  
                                         2.266E+03-5.343E-03 0.000E+00 0.000E+00
                                         3.409E+02-3.989E-02 0.000E+00 0.000E+00
                                         7.736E+01-1.785E-01 0.000E+00 0.000E+00
                                         2.148E+01-4.643E-01 0.000E+00 0.000E+00
                                         6.659E+00-4.431E-01 0.000E+00 0.000E+00
                                458 S  
                                         8.535E-01 1.000E+00 0.000E+00 0.000E+00
                                459 S  
                                         2.748E-01 1.000E+00 0.000E+00 0.000E+00
                         460-   462 P  
                                         1.772E+01 0.000E+00 4.339E-02 0.000E+00
                                         3.864E+00 0.000E+00 2.309E-01 0.000E+00
                                         1.048E+00 0.000E+00 5.138E-01 0.000E+00
                         463-   465 P  
                                         2.585E-01 0.000E+00 1.000E+00 0.000E+00
                         466-   470 D  
                                         7.286E-01 0.000E+00 0.000E+00 1.000E+00
                         471-   475 D  
                                         1.934E-01 0.000E+00 0.000E+00 1.000E+00
  14 O   -4.617  -2.523   3.407
  15 C    4.412   9.235  -5.537
                                495 S  
                                         1.238E+03 5.457E-03 0.000E+00 0.000E+00
                                         1.863E+02 4.064E-02 0.000E+00 0.000E+00
                                         4.225E+01 1.803E-01 0.000E+00 0.000E+00
                                         1.168E+01 4.632E-01 0.000E+00 0.000E+00
                                         3.593E+00 4.409E-01 0.000E+00 0.000E+00
                                496 S  
                                         5.281E+00 1.000E+00 0.000E+00 0.000E+00
                                497 S  
                                         4.447E-01 1.000E+00 0.000E+00 0.000E+00
                         498-   500 P  
                                         9.468E+00 0.000E+00 3.839E-02 0.000E+00
                                         2.010E+00 0.000E+00 2.112E-01 0.000E+00
                                         5.477E-01 0.000E+00 5.133E-01 0.000E+00
                         501-   503 P  
                                         1.604E-01 0.000E+00 1.000E+00 0.000E+00
                         504-   508 D  
                                         6.070E-01 0.000E+00 0.000E+00 1.000E+00
                         509-   513 D  
                                         2.939E-01 0.000E+00 0.000E+00 1.000E+00
  16 C   -4.412  -3.623   5.537
  17 H    5.800   9.284  -6.616
                                533 S  
                                         2.263E+01 1.441E-02 0.000E+00 0.000E+00
                                         3.236E+00 1.072E-01 0.000E+00 0.000E+00
                                         7.304E-01 3.846E-01 0.000E+00 0.000E+00
                                534 S  
                                         1.417E-01 1.000E+00 0.000E+00 0.000E+00
                         535-   537 P  
                                         3.944E-01 0.000E+00 1.000E+00 0.000E+00
                         538-   540 P  
                                         1.006E-01 0.000E+00 1.000E+00 0.000E+00
  18 H   -5.800  -3.575   6.616
  19 O    2.524   8.114  -6.270
  20 O   -2.524  -4.745   6.270
  21 O    6.565  10.809   1.100
  22 O   -6.565  -2.050  -1.100
  23 C   -6.727  10.580   3.202
  24 C    6.727  -2.279  -3.202
  25 H    6.798   9.850   4.519
  26 H   -6.798  -3.009  -4.519
  27 O   -4.555  11.225   3.672
  28 O    4.555  -1.633  -3.672
  29 O   -6.263 -11.899  -6.091
  30 O    6.263   0.959   6.091
  31 C   -4.361 -10.899  -6.928
  32 C    4.361   1.960   6.928
  33 H   -2.936 -10.850  -5.903
  34 H    2.936   2.008   5.903
  35 O   -4.206  -9.916  -9.121
  36 O    4.206   2.942   9.121
  37 O    5.149 -10.140  -1.970
  38 O   -5.149   2.718   1.970
  39 C    2.975 -10.078  -1.000
  40 C   -2.975   2.780   1.000
  41 H    2.085  -8.566  -1.098
  42 H   -2.085   4.292   1.098
  43 O    1.918 -11.886   0.086
  44 O   -1.918   0.972  -0.086
  45 O   -3.992 -10.804  -0.684
  46 O    3.992   2.055   0.684
  47 C   -4.170  -8.379  -0.944
  48 C    4.170   4.480   0.944
  49 H   -5.453  -7.741  -1.958
  50 H    5.453   5.118   1.958
  51 O   -2.716  -6.859   0.079
  52 O    2.716   6.000  -0.079
  53 O    1.100  10.318   3.486
  54 O   -1.100  -2.541  -3.486
  55 C    1.000   9.261   5.623
  56 C   -1.000  -3.598  -5.623
  57 H   -0.463   9.474   6.575
  58 H    0.463  -3.384  -6.575
  59 O    2.758   7.928   6.570
  60 O   -2.758  -4.930  -6.570
  61 O   -1.028  10.081  -0.986
  62 O    1.028  -2.777   0.986
  63 C   -2.275   9.003  -2.675
  64 C    2.275  -3.855   2.675
  65 H   -1.478   7.697  -3.547
  66 H    1.478  -5.161   3.547
  67 O   -4.490   9.533  -3.288
  68 O    4.490  -3.325   3.288
  69 O   -5.212  -8.456   9.993
  70 O    5.212   4.403  -9.993
  71 C   -6.279  -9.976   8.484
  72 C    6.279   2.883  -8.484
  73 H   -5.326 -10.572   7.128
  74 H    5.326   2.286  -7.128
  75 O    5.943 -10.734   8.675
  76 O   -5.943   2.124  -8.675
  77 O    0.480  -3.973 -11.445
  78 O   -0.480   8.885  11.445
  79 C    0.193  -1.589 -11.663
  80 C   -0.193  11.269  11.663
  81 H   -3.221  -0.645  10.858
  82 H    3.221  12.213 -10.858
  83 O   -1.760  -0.471 -10.933
  84 O    1.760  12.388  10.933
  85 O    4.450  -5.925  11.414
  86 O   -4.450   6.933 -11.414
  87 C    3.208  -3.870  11.131
  88 C   -3.208   8.988 -11.131
  89 H    4.023  -2.384  11.596
  90 H   -4.023  10.474 -11.596
  91 O    1.024  -3.670  10.289
  92 O   -1.024   9.189 -10.289
  93 O    4.326  -8.335 -10.465
  94 O   -4.326   4.524  10.465
  95 C    3.305  -8.865  -8.347
  96 C   -3.305   3.994   8.347
  97 H    4.285  -9.659  -7.123
  98 H   -4.285   3.199   7.123
  99 O    1.033  -8.373  -7.824
 100 O   -1.033   4.485   7.824
 101 O    0.817  -8.751   7.958
 102 O   -0.817   4.107  -7.958
 103 C    0.649 -10.081   5.930
 104 C   -0.649   2.777  -5.930
 105 H    2.104 -10.906   5.377
 106 H   -2.104   1.952  -5.377
 107 O   -1.305 -10.333   4.665
 108 O    1.305   2.525  -4.665

 *******************************************************************************
 FINISHED BASIS SET HANDLING 
 *******************************************************************************

 INFORMATION **** SET_MPP **** PCRYSTAL CALCULATION
 INFORMATION **** READM2 **** NEW DEFAULT: FOCK/KS MATRIX MIXING SET TO 30 %
 INFORMATION **** READM2 **** NEW DEFAULT: FULL DIRECT SCF MODE
 INFORMATION **** READM2 **** NEW DEFAULT: COULOMB BIPOLAR BUFFER SET TO 32 Mb
 INFORMATION **** READM2 **** NEW DEFAULT: EXCHANGE BIPOLAR BUFFER SET TO 32 Mb

 *******************************************************************************
 NEW DEFAULT: DFT INTEGRATION GRID INCREASED TO XLGRID
 NEW DEFAULT: DIIS ACCELERATOR ACTIVE
 USE KEYWORD NODIIS TO TURN IT OFF
 *******************************************************************************

 INFORMATION **** DFTD3_INPUT **** PERFORM DISPERSION CORRECTION DFT-D3(BJ) IN THE BECKE-JOHNSON DAMPING SCHEME

 PLEASE CITE:
 (1) DFT-D3 Reference
  S. Grimme, J. Antony, S. Ehrlich, and H. Krieg, J. Chem. Phys. 132 (2010), 154104
 (2) BJ-Damping Reference
  S. Grimme, S. Ehrlich, and L. Goerigk, J. Comput. Chem. 32 (2011), 1456-1465
 (3) General DFT-D Review
  S. Grimme, A. Hansen, J. G. Brandenburg, and C. Bannwarth,
  Chem. Rev. 116 (2016), 5105-5154

 INFORMATION **** TOLINTEG **** COULOMB AND EXCHANGE SERIES TOLERANCES MODIFIED
 INFORMATION **** MAXCYCLE **** MAX NUMBER OF SCF CYCLES SET TO          50
 *******************************************************************************
 N. OF ATOMS PER CELL       108  COULOMB OVERLAP TOL         (T1) 10**  -12
 NUMBER OF SHELLS           744  COULOMB PENETRATION TOL     (T2) 10**  -12
 NUMBER OF AO              2016  EXCHANGE OVERLAP TOL        (T3) 10**   20
 N. OF ELECTRONS PER CELL   912  EXCHANGE PSEUDO OVP (F(G))  (T4) 10**   20
 CORE ELECTRONS PER CELL    360  EXCHANGE PSEUDO OVP (P(G))  (T5) 10**   20
 N. OF SYMMETRY OPERATORS     2  POLE ORDER IN MONO ZONE                  4
 *******************************************************************************
 TYPE OF CALCULATION :  RESTRICTED CLOSED SHELL
 KOHN-SHAM HAMILTONIAN

 (EXCHANGE)[CORRELATION] FUNCTIONAL:(PERDEW-BURKE-ERNZERHOF)[PERDEW-BURKE-ERNZERHOF]


 CAPPA:IS1  3;IS2  3;IS3  3; K PTS MONK NET  10; SYMMOPS:K SPACE   4;G SPACE   2

 *******************************************************************************
 MAX NUMBER OF SCF CYCLES      50  CONVERGENCE ON DELTAP        10**-16
 WEIGHT OF F(I) IN F(I+1)      30% CONVERGENCE ON ENERGY        10**- 7
 SHRINK. FACT.(MONKH.)    3  3  3  NUMBER OF K POINTS IN THE IBZ     10
 SHRINKING FACTOR(GILAT NET)    3  NUMBER OF K POINTS(GILAT NET)     10
 *******************************************************************************
 *** K POINTS COORDINATES (OBLIQUE COORDINATES IN UNITS OF IS =  3)
   1-R(  0  0  0)   2-C(  1  0  0)   3-C(  0  1  0)   4-C(  1  1  0)
   5-C(  0  0  1)   6-C(  1  0  1)   7-C(  2  0  1)   8-C(  0  1  1)
   9-C(  1  1  1)  10-C(  2  1  1)

 DIRECT LATTICE VECTORS COMPON. (A.U.)     RECIP. LATTICE VECTORS COMPON. (A.U.) 
        X            Y            Z              X            Y            Z
   14.4409092    0.0000000    0.0000000      0.4350962    0.0000000    0.0879916
    0.0000000   25.7167160    0.0000000     -0.0000000    0.2443230   -0.0000000
   -4.7032907    0.0000000   23.2565825      0.0000000    0.0000000    0.2701680

 DISK SPACE FOR EIGENVECTORS (FTN 10)    77220864 REALS

 SYMMETRY ADAPTION OF THE BLOCH FUNCTIONS ENABLED
 TTTTTTTTTTTTTTTTTTTTTTTTTTTTTT gordsh1     TELAPSE        0.50 TCPU        0.10

 MATRIX SIZE: P(G) 3899112, F(G) 1951128, P(G) IRR  979429, F(G) IRR  979429
 MAX G-VECTOR INDEX FOR 1- AND 2-ELECTRON INTEGRALS  41

 TTTTTTTTTTTTTTTTTTTTTTTTTTTTTT INPUT       TELAPSE        0.67 TCPU        0.26

 NEIGHBORS OF THE NON-EQUIVALENT ATOMS

 N = NUMBER OF NEIGHBORS AT DISTANCE R
    ATOM  N     R/ANG      R/AU   NEIGHBORS (ATOM LABELS AND CELL INDICES)
   1 ZN   1     2.0568     3.8867   67 O    1 0 0
   1 ZN   1     2.0864     3.9427   13 O    0 0 0
   1 ZN   1     2.0970     3.9627   29 O    1 1 0
   1 ZN   1     2.0991     3.9668   37 O    0 1 0
   1 ZN   1     2.1108     3.9889   45 O    1 1 0
   1 ZN   1     2.1399     4.0439   21 O    0 0 0

   3 ZN   1     2.0304     3.8370   52 O    0 0 0
   3 ZN   1     2.0566     3.8864   13 O    0 0 0
   3 ZN   1     2.0718     3.9151   53 O    0 0 0
   3 ZN   1     2.1117     3.9905   61 O    0 0 0
   3 ZN   1     2.1234     4.0126   21 O    0 0 0
   3 ZN   1     2.1695     4.0997   43 O    0 1 0

   5 ZN   1     2.0192     3.8158  107 O    0 0 0
   5 ZN   1     2.0453     3.8651   45 O    0 0 0
   5 ZN   1     2.0566     3.8864   27 O    0-1 0
   5 ZN   1     2.1281     4.0214   61 O    0-1 0
   5 ZN   1     2.1410     4.0459   43 O    0 0 0
   5 ZN   1     2.2364     4.2262   53 O    0-1 0

   7 ZN   1     2.0605     3.8938   60 O    0 0 0
   7 ZN   1     2.0979     3.9645   85 O   -1 0-1
   7 ZN   1     2.1004     3.9692   99 O    0 0 0
   7 ZN   1     2.1043     3.9766   77 O    0 0 0
   7 ZN   1     2.1095     3.9863   35 O    0 0 0
   7 ZN   1     2.1270     4.0194   69 O    0 0-1

   9 ZN   1     2.0586     3.8901   84 O    0-1 0
   9 ZN   1     2.0756     3.9223   35 O    1 0 1
   9 ZN   1     2.0763     3.9237   75 O    0 0 0
   9 ZN   1     2.0995     3.9674  101 O    0 0 0
   9 ZN   1     2.1184     4.0033   85 O    0 0 0
   9 ZN   1     2.1420     4.0478   93 O    0 0 1

  11 ZN   1     2.0228     3.8225   19 O    0 0 0
  11 ZN   1     2.0601     3.8930   92 O    0 0 0
  11 ZN   1     2.0756     3.9224  102 O    0 0 0
  11 ZN   1     2.0973     3.9634   94 O    0 0-1
  11 ZN   1     2.1338     4.0323   78 O    0 0-1
  11 ZN   1     2.1572     4.0765   70 O    0 0 0

  13 O    1     1.2735     2.4066   15 C    0 0 0
  13 O    1     1.8938     3.5787   17 H    0 0 0
  13 O    1     2.0566     3.8864    3 ZN   0 0 0
  13 O    1     2.0864     3.9427    1 ZN   0 0 0
  13 O    1     2.2145     4.1847   19 O    0 0 0
  13 O    1     2.6103     4.9327   21 O    0 0 0

  15 C    1     0.9307     1.7588   17 H    0 0 0
  15 C    1     1.2250     2.3148   19 O    0 0 0
  15 C    1     1.2735     2.4066   13 O    0 0 0
  15 C    1     2.9655     5.6039   11 ZN   0 0 0
  15 C    1     2.9911     5.6523    1 ZN   0 0 0
  15 C    1     3.0677     5.7971    3 ZN   0 0 0

  17 H    1     0.9307     1.7588   15 C    0 0 0
  17 H    1     1.8499     3.4959   19 O    0 0 0
  17 H    1     1.8938     3.5787   13 O    0 0 0
  17 H    1     2.7233     5.1463   29 O    1 1 0
  17 H    1     2.8182     5.3256   67 O    1 0 0
  17 H    1     2.8810     5.4443   78 O    0 0-1

  19 O    1     1.2250     2.3148   15 C    0 0 0
  19 O    1     1.8499     3.4959   17 H    0 0 0
  19 O    1     2.0228     3.8225   11 ZN   0 0 0
  19 O    1     2.2145     4.1847   13 O    0 0 0
  19 O    1     2.5711     4.8587   65 H    0 0 0
  19 O    1     2.8934     5.4678   92 O    0 0 0

  21 O    1     1.2736     2.4067   23 C    1 0 0
  21 O    1     1.8830     3.5584   25 H    0 0 0
  21 O    1     2.1234     4.0126    3 ZN   0 0 0
  21 O    1     2.1399     4.0439    1 ZN   0 0 0
  21 O    1     2.2338     4.2213   27 O    1 0 0
  21 O    1     2.6103     4.9327   13 O    0 0 0

  23 C    1     0.9325     1.7622   25 H   -1 0 0
  23 C    1     1.2247     2.3143   27 O    0 0 0
  23 C    1     1.2736     2.4067   21 O   -1 0 0
  23 C    1     3.0578     5.7784    5 ZN   0 1 0
  23 C    1     3.1139     5.8845    3 ZN  -1 0 0
  23 C    1     3.1264     5.9080    1 ZN  -1 0 0

  25 H    1     0.9325     1.7622   23 C    1 0 0
  25 H    1     1.8443     3.4852   27 O    1 0 0
  25 H    1     1.8830     3.5584   21 O    0 0 0
  25 H    1     2.6040     4.9209   59 O    0 0 0
  25 H    1     2.9347     5.5458   50 H    0 0 0
  25 H    1     3.0741     5.8092   53 O    0 0 0

  27 O    1     1.2247     2.3143   23 C    0 0 0
  27 O    1     1.8443     3.4852   25 H   -1 0 0
  27 O    1     2.0566     3.8864    5 ZN   0 1 0
  27 O    1     2.2338     4.2213   21 O   -1 0 0
  27 O    1     2.7951     5.2819   73 H    0 1 0
  27 O    1     2.8119     5.3136   57 H    0 0 0

  29 O    1     1.2206     2.3066   31 C    0 0 0
  29 O    1     1.8486     3.4933   33 H    0 0 0
  29 O    1     2.0970     3.9627    1 ZN  -1-1 0
  29 O    1     2.2039     4.1648   35 O    0 0 0
  29 O    1     2.4385     4.6081   97 H   -1 0 0
  29 O    1     2.7233     5.1463   17 H   -1-1 0

  31 C    1     0.9292     1.7559   33 H    0 0 0
  31 C    1     1.2206     2.3066   29 O    0 0 0
  31 C    1     1.2743     2.4080   35 O    0 0 0
  31 C    1     2.9748     5.6215    1 ZN  -1-1 0
  31 C    1     2.9979     5.6651    7 ZN   0 0 0
  31 C    1     3.0948     5.8484    9 ZN  -1 0-1

  33 H    1     0.9292     1.7559   31 C    0 0 0
  33 H    1     1.8486     3.4933   29 O    0 0 0
  33 H    1     1.8965     3.5838   35 O    0 0 0
  33 H    1     2.6766     5.0580   99 O    0 0 0
  33 H    1     2.8177     5.3246   45 O    0 0 0
  33 H    1     2.9726     5.6174   49 H    0 0 0

  35 O    1     1.2743     2.4080   31 C    0 0 0
  35 O    1     1.8965     3.5838   33 H    0 0 0
  35 O    1     2.0756     3.9223    9 ZN  -1 0-1
  35 O    1     2.1095     3.9863    7 ZN   0 0 0
  35 O    1     2.2039     4.1648   29 O    0 0 0
  35 O    1     2.6195     4.9501   85 O   -1 0-1

  37 O    1     1.2604     2.3818   39 C    0 0 0
  37 O    1     1.8806     3.5538   41 H    0 0 0
  37 O    1     2.0991     3.9668    1 ZN   0-1 0
  37 O    1     2.2276     4.2095   43 O    0 0 0
  37 O    1     2.3956     4.5271   49 H    1 0 0
  37 O    1     2.7769     5.2477   97 H    0 0 0

  39 C    1     0.9299     1.7573   41 H    0 0 0
  39 C    1     1.2484     2.3592   43 O    0 0 0
  39 C    1     1.2604     2.3818   37 O    0 0 0
  39 C    1     3.0687     5.7990    1 ZN   0-1 0
  39 C    1     3.1183     5.8928    3 ZN   0-1 0
  39 C    1     3.1842     6.0172    5 ZN   0 0 0

  41 H    1     0.9299     1.7573   39 C    0 0 0
  41 H    1     1.8673     3.5287   43 O    0 0 0
  41 H    1     1.8806     3.5538   37 O    0 0 0
  41 H    1     2.7676     5.2300   51 O    0 0 0
  41 H    1     3.0643     5.7907   66 H    0 0 0
  41 H    1     3.1954     6.0384   64 C    0 0 0

  43 O    1     1.2484     2.3592   39 C    0 0 0
  43 O    1     1.8673     3.5287   41 H    0 0 0
  43 O    1     2.1410     4.0459    5 ZN   0 0 0
  43 O    1     2.1695     4.0997    3 ZN   0-1 0
  43 O    1     2.2276     4.2095   37 O    0 0 0
  43 O    1     2.5862     4.8873   61 O    0-1 0

  45 O    1     1.2941     2.4455   47 C    0 0 0
  45 O    1     1.9182     3.6248   49 H    0 0 0
  45 O    1     2.0453     3.8651    5 ZN   0 0 0
  45 O    1     2.1108     3.9889    1 ZN  -1-1 0
  45 O    1     2.2308     4.2156   51 O    0 0 0
  45 O    1     2.8177     5.3246   33 H    0 0 0

  47 C    1     0.9286     1.7548   49 H    0 0 0
  47 C    1     1.2377     2.3389   51 O    0 0 0
  47 C    1     1.2941     2.4455   45 O    0 0 0
  47 C    1     2.9168     5.5120   37 O   -1 0 0
  47 C    1     2.9627     5.5987    4 ZN   0 0 0
  47 C    1     2.9670     5.6068    1 ZN  -1-1 0

  49 H    1     0.9286     1.7548   47 C    0 0 0
  49 H    1     1.8645     3.5235   51 O    0 0 0
  49 H    1     1.9182     3.6248   45 O    0 0 0
  49 H    1     2.3956     4.5271   37 O   -1 0 0
  49 H    1     2.9347     5.5458   26 H    0 0 0
  49 H    1     2.9526     5.5797    1 ZN  -1-1 0

  51 O    1     1.2377     2.3389   47 C    0 0 0
  51 O    1     1.8645     3.5235   49 H    0 0 0
  51 O    1     2.0304     3.8370    4 ZN   0 0 0
  51 O    1     2.2308     4.2156   45 O    0 0 0
  51 O    1     2.7676     5.2300   41 H    0 0 0
  51 O    1     2.9700     5.6125   62 O    0 0 0

  53 O    1     1.2629     2.3864   55 C    0 0 0
  53 O    1     1.8854     3.5629   57 H    0 0 0
  53 O    1     2.0718     3.9151    3 ZN   0 0 0
  53 O    1     2.2364     4.2262    5 ZN   0 1 0
  53 O    1     2.2430     4.2387   59 O    0 0 0
  53 O    1     2.6230     4.9568   43 O    0 1 0

  55 C    1     0.9304     1.7582   57 H    0 0 0
  55 C    1     1.2629     2.3864   53 O    0 0 0
  55 C    1     1.2702     2.4003   59 O    0 0 0
  55 C    1     2.8572     5.3993    8 ZN   0 0 0
  55 C    1     2.9832     5.6375  100 O    0 0 0
  55 C    1     2.9971     5.6638  105 H    0 1 0

  57 H    1     0.9304     1.7582   55 C    0 0 0
  57 H    1     1.8854     3.5629   53 O    0 0 0
  57 H    1     1.8907     3.5729   59 O    0 0 0
  57 H    1     2.5958     4.9054   78 O    0 0 0
  57 H    1     2.7382     5.1745  100 O    0 0 0
  57 H    1     2.8067     5.3038    8 ZN   0 0 0

  59 O    1     1.2702     2.4003   55 C    0 0 0
  59 O    1     1.8907     3.5729   57 H    0 0 0
  59 O    1     2.0605     3.8938    8 ZN   0 0 0
  59 O    1     2.2430     4.2387   53 O    0 0 0
  59 O    1     2.6040     4.9209   25 H    0 0 0
  59 O    1     2.7904     5.2730  100 O    0 0 0

  61 O    1     1.2486     2.3594   63 C    0 0 0
  61 O    1     1.8666     3.5273   65 H    0 0 0
  61 O    1     2.1117     3.9905    3 ZN   0 0 0
  61 O    1     2.1281     4.0214    5 ZN   0 1 0
  61 O    1     2.2193     4.1939   67 O    0 0 0
  61 O    1     2.5862     4.8873   43 O    0 1 0

  63 C    1     0.9322     1.7615   65 H    0 0 0
  63 C    1     1.2483     2.3590   67 O    0 0 0
  63 C    1     1.2486     2.3594   61 O    0 0 0
  63 C    1     3.0271     5.7204    1 ZN  -1 0 0
  63 C    1     3.0825     5.8251    3 ZN   0 0 0
  63 C    1     3.1540     5.9602    5 ZN   0 1 0

  65 H    1     0.9322     1.7615   63 C    0 0 0
  65 H    1     1.8666     3.5273   61 O    0 0 0
  65 H    1     1.8720     3.5375   67 O    0 0 0
  65 H    1     2.5711     4.8587   19 O    0 0 0
  65 H    1     2.9259     5.5292  104 C    0 0 0
  65 H    1     3.0166     5.7005   52 O    0 0 0

  67 O    1     1.2483     2.3590   63 C    0 0 0
  67 O    1     1.8720     3.5375   65 H    0 0 0
  67 O    1     2.0568     3.8867    1 ZN  -1 0 0
  67 O    1     2.2193     4.1939   61 O    0 0 0
  67 O    1     2.8182     5.3256   17 H   -1 0 0
  67 O    1     2.8549     5.3949   13 O   -1 0 0

  69 O    1     1.2663     2.3929   71 C    0 0 0
  69 O    1     1.8860     3.5640   73 H    0 0 0
  69 O    1     2.1270     4.0194    7 ZN   0 0 1
  69 O    1     2.1572     4.0765   12 ZN   0 0 0
  69 O    1     2.2280     4.2103   75 O   -1 0 0
  69 O    1     2.6128     4.9375   77 O    0 0 1

  71 C    1     0.9321     1.7614   73 H    0 0 0
  71 C    1     1.2451     2.3530   75 O   -1 0 0
  71 C    1     1.2663     2.3929   69 O    0 0 0
  71 C    1     3.0425     5.7495    9 ZN  -1 0 0
  71 C    1     3.0937     5.8463    7 ZN   0 0 1
  71 C    1     3.1396     5.9331   12 ZN   0 0 0

  73 H    1     0.9321     1.7614   71 C    0 0 0
  73 H    1     1.8694     3.5327   75 O   -1 0 0
  73 H    1     1.8860     3.5640   69 O    0 0 0
  73 H    1     2.4987     4.7219  107 O    0 0 0
  73 H    1     2.7951     5.2819   27 O    0-1 0
  73 H    1     3.2287     6.1014   12 ZN   0 0 0

  75 O    1     1.2451     2.3530   71 C    1 0 0
  75 O    1     1.8694     3.5327   73 H    1 0 0
  75 O    1     2.0763     3.9237    9 ZN   0 0 0
  75 O    1     2.2280     4.2103   69 O    1 0 0
  75 O    1     2.6795     5.0636  105 H    0 0 0
  75 O    1     2.8640     5.4123   90 H    1-1 1

  77 O    1     1.2759     2.4112   79 C    0 0 0
  77 O    1     1.9070     3.6036   81 H    0 0-1
  77 O    1     2.1043     3.9766    7 ZN   0 0 0
  77 O    1     2.1338     4.0323   12 ZN   0 0-1
  77 O    1     2.2169     4.1894   83 O    0 0 0
  77 O    1     2.5958     4.9054   58 H    0 0 0

  79 C    1     0.9307     1.7588   81 H    0 0-1
  79 C    1     1.2521     2.3660   83 O    0 0 0
  79 C    1     1.2759     2.4112   77 O    0 0 0
  79 C    1     2.8590     5.4026   58 H    0 0 0
  79 C    1     2.9164     5.5113   18 H    0 0-1
  79 C    1     3.0734     5.8079   10 ZN   0 0 0

  81 H    1     0.9307     1.7588   79 C    0 0 1
  81 H    1     1.8851     3.5622   83 O    0 0 1
  81 H    1     1.9070     3.6036   77 O    0 0 1
  81 H    1     2.7747     5.2435   91 O    0 0 0
  81 H    1     2.7921     5.2763   96 C    0 0 0
  81 H    1     2.8048     5.3004   94 O    0 0 0

  83 O    1     1.2521     2.3660   79 C    0 0 0
  83 O    1     1.8851     3.5622   81 H    0 0-1
  83 O    1     2.0586     3.8901   10 ZN   0 0 0
  83 O    1     2.2169     4.1894   77 O    0 0 0
  83 O    1     2.3562     4.4525   89 H   -1 0-1
  83 O    1     2.8657     5.4153   76 O    0 0 0

  85 O    1     1.2795     2.4178   87 C    0 0 0
  85 O    1     1.8899     3.5714   89 H    0 0 0
  85 O    1     2.0979     3.9645    7 ZN   1 0 1
  85 O    1     2.1184     4.0033    9 ZN   0 0 0
  85 O    1     2.2507     4.2533   91 O    0 0 0
  85 O    1     2.6195     4.9501   35 O    1 0 1

  87 C    1     0.9304     1.7582   89 H    0 0 0
  87 C    1     1.2430     2.3489   91 O    0 0 0
  87 C    1     1.2795     2.4178   85 O    0 0 0
  87 C    1     3.0299     5.7257   12 ZN   0 0 0
  87 C    1     3.0671     5.7961    9 ZN   0 0 0
  87 C    1     3.1032     5.8642    7 ZN   1 0 1

  89 H    1     0.9304     1.7582   87 C    0 0 0
  89 H    1     1.8602     3.5153   91 O    0 0 0
  89 H    1     1.8899     3.5714   85 O    0 0 0
  89 H    1     2.3562     4.4525   83 O    1 0 1
  89 H    1     2.8640     5.4123   76 O    1 0 1
  89 H    1     3.1092     5.8756   36 O    0 0 0

  91 O    1     1.2430     2.3489   87 C    0 0 0
  91 O    1     1.8602     3.5153   89 H    0 0 0
  91 O    1     2.0601     3.8930   12 ZN   0 0 0
  91 O    1     2.2507     4.2533   85 O    0 0 0
  91 O    1     2.7747     5.2435   81 H    0 0 0
  91 O    1     2.8934     5.4678   20 O    0 0 0

  93 O    1     1.2756     2.4106   95 C    0 0 0
  93 O    1     1.9024     3.5951   97 H    0 0 0
  93 O    1     2.0973     3.9634   12 ZN   0 0-1
  93 O    1     2.1420     4.0478    9 ZN   0 0-1
  93 O    1     2.2340     4.2216   99 O    0 0 0
  93 O    1     2.6435     4.9954  101 O    0 0-1

  95 C    1     0.9300     1.7574   97 H    0 0 0
  95 C    1     1.2608     2.3826   99 O    0 0 0
  95 C    1     1.2756     2.4106   93 O    0 0 0
  95 C    1     2.7921     5.2763   82 H    0-1 0
  95 C    1     3.0900     5.8392   12 ZN   0 0-1
  95 C    1     3.0983     5.8549    7 ZN   0 0 0

  97 H    1     0.9300     1.7574   95 C    0 0 0
  97 H    1     1.8873     3.5664   99 O    0 0 0
  97 H    1     1.9024     3.5951   93 O    0 0 0
  97 H    1     2.4385     4.6081   29 O    1 0 0
  97 H    1     2.7769     5.2477   37 O    0 0 0
  97 H    1     2.8919     5.4648   82 H    0-1 0

  99 O    1     1.2608     2.3826   95 C    0 0 0
  99 O    1     1.8873     3.5664   97 H    0 0 0
  99 O    1     2.1004     3.9692    7 ZN   0 0 0
  99 O    1     2.2340     4.2216   93 O    0 0 0
  99 O    1     2.6766     5.0580   33 H    0 0 0
  99 O    1     2.7382     5.1745   58 H    0 0 0

 101 O    1     1.2863     2.4307  103 C    0 0 0
 101 O    1     1.9055     3.6008  105 H    0 0 0
 101 O    1     2.0756     3.9224   12 ZN   0 0 0
 101 O    1     2.0995     3.9674    9 ZN   0 0 0
 101 O    1     2.2354     4.2244  107 O    0 0 0
 101 O    1     2.6435     4.9954   93 O    0 0 1

 103 C    1     0.9324     1.7620  105 H    0 0 0
 103 C    1     1.2389     2.3411  107 O    0 0 0
 103 C    1     1.2863     2.4307  101 O    0 0 0
 103 C    1     2.9053     5.4903    5 ZN   0 0 0
 103 C    1     2.9259     5.5292   66 H    0 0 0
 103 C    1     3.0276     5.7213    9 ZN   0 0 0

 105 H    1     0.9324     1.7620  103 C    0 0 0
 105 H    1     1.8674     3.5290  107 O    0 0 0
 105 H    1     1.9055     3.6008  101 O    0 0 0
 105 H    1     2.6335     4.9767   53 O    0-1 0
 105 H    1     2.6795     5.0636   75 O    0 0 0
 105 H    1     2.8491     5.3841   43 O    0 0 0

 107 O    1     1.2389     2.3411  103 C    0 0 0
 107 O    1     1.8674     3.5290  105 H    0 0 0
 107 O    1     2.0192     3.8158    5 ZN   0 0 0
 107 O    1     2.2354     4.2244  101 O    0 0 0
 107 O    1     2.4987     4.7219   73 H    0 0 0
 107 O    1     2.8421     5.3707   27 O    0-1 0


 SYMMETRY ALLOWED ELASTIC DISTORTION 1
  0.5773503  0.0000000  0.0000000
  0.0000000  0.5773503  0.0000000
  0.0000000  0.0000000  0.5773503

 SYMMETRY ALLOWED ELASTIC DISTORTION 2
  0.8164966  0.0000000  0.0000000
  0.0000000 -0.4082483  0.0000000
  0.0000000  0.0000000 -0.4082483

 SYMMETRY ALLOWED ELASTIC DISTORTION 3
  0.0000000  0.0000000  0.0000000
  0.0000000  0.7071068  0.0000000
  0.0000000  0.0000000 -0.7071068

 SYMMETRY ALLOWED ELASTIC DISTORTION 4
 -0.0000000  0.0000000  0.7071068
  0.0000000 -0.0000000  0.0000000
  0.7071068  0.0000000  0.0000000

 SYMMETRY ALLOWED INTERNAL DEGREE(S) OF FREEDOM: 161
 TTTTTTTTTTTTTTTTTTTTTTTTTTTTTT SYMM        TELAPSE        0.69 TCPU        0.28
 TTTTTTTTTTTTTTTTTTTTTTTTTTTTTT INT_SCREEN  TELAPSE        0.71 TCPU        0.29

 *******************************************************************************
 *                             OPTIMIZATION STARTS                             *
 *******************************************************************************
 RECLASIFICATION OF INDICES FOR INTEGRAL CALC ACCORDING TO DIFFERENT CRITERIA:
           FIXDELTE                  FIXDELTX              FIXDELTN
           1.0000000               0.80000000                165
 DEFAULT MAX NUM OF POINTS  330
 *******************************************************************************

 *******************************************************************************
 COORDINATE AND CELL OPTIMIZATION - POINT    1
 INFORMATION **** EXCBUF **** EXCH. BIPO BUFFER: WORDS USED =           0

 DFT PARAMETERS

     ATOM       ELECTRONS   NET CHARGE   R(ANGSTROM)
   1  30  ZN     30.0000      0.0000     1.37000000
  13   8  O       8.0000      0.0000     0.74000000
  15   6  C       6.0000      0.0000     0.77000000
  17   1  H       1.0000      0.0000     1.11000000

 SIZE OF GRID=    1512535
 TTTTTTTTTTTTTTTTTTTTTTTTTTTTTT MAKE_GRID2  TELAPSE        2.86 TCPU        2.43
 BECKE WEIGHT FUNCTION
 RADSAFE =     2.00
 TOLERANCES - DENSITY:10**- 6; POTENTIAL:10**- 9; GRID WGT:10**-14

 RADIAL INTEGRATION  - INTERVALS (POINTS,UPPER LIMIT):            1( 75,  4.0*R)

 ANGULAR INTEGRATION - INTERVALS (ACCURACY LEVEL [N. POINTS] UPPER LIMIT):
  1(  4[  86]   0.2)  2(  8[ 194]   0.5)  3( 12[ 350]   0.9)  4( 16[ 974]   3.5)
  5( 12[ 350]9999.0)
 TTTTTTTTTTTTTTTTTTTTTTTTTTTTTT INT_CALC    TELAPSE        2.96 TCPU        2.52

 *******************************************************************************
 C:\use rs\sanoj\Temp\tmp_p\newconn.mol                                          
 CRYSTAL - SCF - TYPE OF CALCULATION :  RESTRICTED CLOSED SHELL
 *******************************************************************************

 CAPPA:IS1  3;IS2  3;IS3  3; K PTS MONK NET  10; SYMMOPS:K SPACE   4;G SPACE   2

 TTTTTTTTTTTTTTTTTTTTTTTTTTTTTT SDIK        TELAPSE        3.90 TCPU        3.45

 AAAAAAAAAAAAAAAAAAAAAAAAAAAAAAAAAAAAAAAAAAAAAAAAAAAAAAAAAAAAAAAAAAAAAAAAAAAAAAA
         ATOMIC WAVEFUNCTION(S)


 NUCLEAR CHARGE 30.0  SYMMETRY SPECIES            S    P    D
 N. ELECTRONS   30.0  NUMBER OF PRIMITIVE GTOS   14    9    5
                      NUMBER OF CONTRACTED GTOS   5    3    2
                      NUMBER OF CLOSED SHELLS     4    2    1
                      OPEN SHELL OCCUPATION       0    0    0

  ZNUC SCFIT  TOTAL HF ENERGY   KINETIC ENERGY   VIRIAL THEOREM ACCURACY
  30.0  10   -1.777404290E+03  1.777325716E+03 -2.000044209E+00  2.5E-06

 NUCLEAR CHARGE  8.0  SYMMETRY SPECIES            S    P
 N. ELECTRONS    8.0  NUMBER OF PRIMITIVE GTOS    7    4
                      NUMBER OF CONTRACTED GTOS   3    2
                      NUMBER OF CLOSED SHELLS     2    0
                      OPEN SHELL OCCUPATION       0    4

  ZNUC SCFIT  TOTAL HF ENERGY   KINETIC ENERGY   VIRIAL THEOREM ACCURACY
   8.0  13   -7.471108462E+01  7.476889254E+01 -1.999226845E+00  2.4E-06

 NUCLEAR CHARGE  6.0  SYMMETRY SPECIES            S    P
 N. ELECTRONS    6.0  NUMBER OF PRIMITIVE GTOS    7    4
                      NUMBER OF CONTRACTED GTOS   3    2
                      NUMBER OF CLOSED SHELLS     2    0
                      OPEN SHELL OCCUPATION       0    2

  ZNUC SCFIT  TOTAL HF ENERGY   KINETIC ENERGY   VIRIAL THEOREM ACCURACY
   6.0   6   -3.750912652E+01  3.905246519E+01 -1.960480378E+00  3.7E-06

 NUCLEAR CHARGE  1.0  SYMMETRY SPECIES            S
 N. ELECTRONS    1.0  NUMBER OF PRIMITIVE GTOS    4
                      NUMBER OF CONTRACTED GTOS   2
                      NUMBER OF CLOSED SHELLS     0
                      OPEN SHELL OCCUPATION       1

  ZNUC SCFIT  TOTAL HF ENERGY   KINETIC ENERGY   VIRIAL THEOREM ACCURACY
   1.0   1   -4.946643675E-01  4.917913167E-01 -2.005842012E+00  9.4E-17

 AAAAAAAAAAAAAAAAAAAAAAAAAAAAAAAAAAAAAAAAAAAAAAAAAAAAAAAAAAAAAAAAAAAAAAAAAAAAAAA

 CHARGE NORMALIZATION FACTOR   1.00000000
 TOTAL ATOMIC CHARGES:
  30.0000000  30.0000000  30.0000000  30.0000000  30.0000000  30.0000000
  30.0000000  30.0000000  30.0000000  30.0000000  30.0000000  30.0000000
   8.0000000   8.0000000   6.0000000   6.0000000   1.0000000   1.0000000
   8.0000000   8.0000000   8.0000000   8.0000000   6.0000000   6.0000000
   1.0000000   1.0000000   8.0000000   8.0000000   8.0000000   8.0000000
   6.0000000   6.0000000   1.0000000   1.0000000   8.0000000   8.0000000
   8.0000000   8.0000000   6.0000000   6.0000000   1.0000000   1.0000000
   8.0000000   8.0000000   8.0000000   8.0000000   6.0000000   6.0000000
   1.0000000   1.0000000   8.0000000   8.0000000   8.0000000   8.0000000
   6.0000000   6.0000000   1.0000000   1.0000000   8.0000000   8.0000000
   8.0000000   8.0000000   6.0000000   6.0000000   1.0000000   1.0000000
   8.0000000   8.0000000   8.0000000   8.0000000   6.0000000   6.0000000
   1.0000000   1.0000000   8.0000000   8.0000000   8.0000000   8.0000000
   6.0000000   6.0000000   1.0000000   1.0000000   8.0000000   8.0000000
   8.0000000   8.0000000   6.0000000   6.0000000   1.0000000   1.0000000
   8.0000000   8.0000000   8.0000000   8.0000000   6.0000000   6.0000000
   1.0000000   1.0000000   8.0000000   8.0000000   8.0000000   8.0000000
   6.0000000   6.0000000   1.0000000   1.0000000   8.0000000   8.0000000
 TTTTTTTTTTTTTTTTTTTTTTTTTTTTTT MOQGAD      TELAPSE        9.93 TCPU        9.45
 WARNING **** GENBUD **** COUL. BIPO BUFFER TOO SMALL - TO AVOID I/O SET BIPOSIZE =     6132200
 TTTTTTTTTTTTTTTTTTTTTTTTTTTTTT SHELLXN     TELAPSE      188.93 TCPU      187.51
 TTTTTTTTTTTTTTTTTTTTTTTTTTTTTT MONMO3      TELAPSE      196.66 TCPU      195.20
 NUMERICALLY INTEGRATED DENSITY    911.9998515662
 TTTTTTTTTTTTTTTTTTTTTTTTTTTTTT NUMDFT      TELAPSE      199.43 TCPU      197.84
 CYC   0 ETOT(AU) -2.588509221927E+04 DETOT -2.59E+04 tst  0.00E+00 PX  1.00E+00
 TTTTTTTTTTTTTTTTTTTTTTTTTTTTTT DIIS        TELAPSE      200.23 TCPU      198.63
 TTTTTTTTTTTTTTTTTTTTTTTTTTTTTT FDIK        TELAPSE      382.53 TCPU      380.27
 INSULATING STATE
 TOP OF VALENCE BANDS -    BAND    456; K    6; EIG -1.2212083E-01 AU
 TOP OF VALENCE BANDS -    BAND    456; K    1; EIG -1.2247720E-01 AU
 BOTTOM OF VIRTUAL BANDS - BAND    457; K    6; EIG -8.8865892E-02 AU
 DIRECT ENERGY BAND GAP:   0.9049 eV
 BOTTOM OF VIRTUAL BANDS - BAND    457; K    1; EIG -8.8327730E-02 AU
 TTTTTTTTTTTTTTTTTTTTTTTTTTTTTT PDIG        TELAPSE      385.01 TCPU      382.74
 CHARGE NORMALIZATION FACTOR   1.00000000
 TOTAL ATOMIC CHARGES:
  27.9297924  27.9297924  27.8590070  27.8590070  27.8908477  27.8908477
  27.8970989  27.8970989  27.8817391  27.8817391  27.8917170  27.8917170
   9.0432157   9.0432157   4.8884530   4.8884530   1.1378167   1.1378167
   8.9945919   8.9945919   9.0765662   9.0765662   4.8318957   4.8318957
   1.1750497   1.1750497   8.9848432   8.9848432   8.9826856   8.9826856
   4.9004805   4.9004805   1.1140344   1.1140344   9.0611859   9.0611859
   9.0175952   9.0175952   4.8825558   4.8825558   1.1278852   1.1278852
   9.0083207   9.0083207   9.1009955   9.1009955   4.8172611   4.8172611
   1.1186938   1.1186938   9.0208988   9.0208988   9.0256655   9.0256655
   4.8473129   4.8473129   1.1264589   1.1264589   9.0538946   9.0538946
   9.0244824   9.0244824   4.8299534   4.8299534   1.1654097   1.1654097
   9.0269920   9.0269920   9.0581153   9.0581153   4.8219343   4.8219343
   1.1542843   1.1542843   9.0230284   9.0230284   9.0546307   9.0546307
   4.8233793   4.8233793   1.1119186   1.1119186   9.0581504   9.0581504
   9.0687110   9.0687110   4.8294457   4.8294457   1.1502934   1.1502934
   9.0127163   9.0127163   9.0669869   9.0669869   4.7854869   4.7854869
   1.1530989   1.1530989   9.0389540   9.0389540   9.0680718   9.0680718
   4.8510271   4.8510271   1.1161198   1.1161198   9.0182508   9.0182508
 TTTTTTTTTTTTTTTTTTTTTTTTTTTTTT MOQGAD      TELAPSE      385.05 TCPU      382.78
 WARNING **** GENBUD **** COUL. BIPO BUFFER TOO SMALL - TO AVOID I/O SET BIPOSIZE =     6132200
 TTTTTTTTTTTTTTTTTTTTTTTTTTTTTT SHELLXN     TELAPSE      586.79 TCPU      583.24
 TTTTTTTTTTTTTTTTTTTTTTTTTTTTTT MONMO3      TELAPSE      608.68 TCPU      605.03
 NUMERICALLY INTEGRATED DENSITY    911.9999073309
 TTTTTTTTTTTTTTTTTTTTTTTTTTTTTT NUMDFT      TELAPSE      616.17 TCPU      612.48
 CYC   1 ETOT(AU) -2.587324700338E+04 DETOT  1.18E+01 tst  0.00E+00 PX  1.00E+00
 TTTTTTTTTTTTTTTTTTTTTTTTTTTTTT DIIS        TELAPSE      616.65 TCPU      612.95
 DIIS TEST: 0.40527E+02 AT SCF   CYCLE   1 - MIX   30 %
 TTTTTTTTTTTTTTTTTTTTTTTTTTTTTT FDIK        TELAPSE      688.12 TCPU      684.10
 INSULATING STATE
 TOP OF VALENCE BANDS -    BAND    456; K    6; EIG -1.4379346E-01 AU
 TOP OF VALENCE BANDS -    BAND    456; K    1; EIG -1.4838130E-01 AU
 BOTTOM OF VIRTUAL BANDS - BAND    457; K    2; EIG -2.2389429E-02 AU
 INDIRECT ENERGY BAND GAP:   3.3036 eV
 BOTTOM OF VIRTUAL BANDS - BAND    457; K    1; EIG -2.2047382E-02 AU
 TTTTTTTTTTTTTTTTTTTTTTTTTTTTTT PDIG        TELAPSE      690.61 TCPU      686.58
 CHARGE NORMALIZATION FACTOR   1.00000000
 TOTAL ATOMIC CHARGES:
  29.3096828  29.3096828  29.3319463  29.3319463  29.3068346  29.3068346
  29.3202655  29.3202655  29.3288242  29.3288242  29.3256930  29.3256930
   8.3226799   8.3226799   5.8109492   5.8109492   1.2178561   1.2178561
   7.9948382   7.9948382   8.3318584   8.3318584   5.7870624   5.7870624
   1.2217685   1.2217685   8.0028239   8.0028239   7.9525305   7.9525305
   5.8299221   5.8299221   1.1895108   1.1895108   8.3255973   8.3255973
   7.9380288   7.9380288   5.9258162   5.9258162   1.1667202   1.1667202
   8.2789725   8.2789725   8.3811045   8.3811045   5.7896129   5.7896129
   1.2205550   1.2205550   7.9857524   7.9857524   8.2842338   8.2842338
   5.8836720   5.8836720   1.2013177   1.2013177   7.9370390   7.9370390
   8.3323302   8.3323302   5.8168350   5.8168350   1.2382769   1.2382769
[...]
 101 O    1     2.1091     3.9856    9 ZN   0 0 0
 101 O    1     2.2409     4.2347  107 O    0 0 0
 101 O    1     2.6949     5.0925   93 O    0 0 1

 103 C    1     1.1052     2.0886  105 H    0 0 0
 103 C    1     1.2625     2.3858  107 O    0 0 0
 103 C    1     1.2832     2.4249  101 O    0 0 0
 103 C    1     2.5797     4.8750   66 H    0 0 0
 103 C    1     2.9122     5.5032    5 ZN   0 0 0
 103 C    1     3.0125     5.6928   53 O    0-1 0

 105 H    1     1.1052     2.0886  103 C    0 0 0
 105 H    1     2.0303     3.8366  101 O    0 0 0
 105 H    1     2.0563     3.8859  107 O    0 0 0
 105 H    1     2.4779     4.6826   53 O    0-1 0
 105 H    1     2.6130     4.9378   75 O    0 0 0
 105 H    1     2.7933     5.2785   43 O    0 0 0

 107 O    1     1.2625     2.3858  103 C    0 0 0
 107 O    1     2.0313     3.8386    5 ZN   0 0 0
 107 O    1     2.0563     3.8859  105 H    0 0 0
 107 O    1     2.2409     4.2347  101 O    0 0 0
 107 O    1     2.2512     4.2542   73 H    0 0 0
 107 O    1     2.6841     5.0723   66 H    0 0 0


 FINAL OPTIMIZED GEOMETRY - DIMENSIONALITY OF THE SYSTEM      3
 (NON PERIODIC DIRECTION: LATTICE PARAMETER FORMALLY SET TO 500)
 *******************************************************************************
 LATTICE PARAMETERS (ANGSTROMS AND DEGREES) - BOHR = 0.5291772083 ANGSTROM
 PRIMITIVE CELL - CENTRING CODE 1/0 VOLUME=  1262.886310 - DENSITY  2.429 g/cm^3
         A              B              C           ALPHA      BETA       GAMMA 
     7.63131902    13.50076607    12.47913092    90.000000 100.811484  90.000000
 *******************************************************************************
 ATOMS IN THE ASYMMETRIC UNIT   54 - ATOMS IN THE UNIT CELL:  108
     ATOM                 X/A                 Y/B                 Z/C    
 *******************************************************************************
      1 T  30 ZN   -4.945666012940E-01  4.828787717265E-01 -1.056638254099E-01
      2 F  30 ZN    4.945666012940E-01 -1.712122827348E-02  1.056638254099E-01
      3 T  30 ZN    1.993247327426E-01  3.849907519845E-01  3.297543434384E-03
      4 F  30 ZN   -1.993247327426E-01 -1.150092480155E-01 -3.297543434384E-03
      5 T  30 ZN   -9.060039415159E-02 -4.906938258344E-01  7.477730342956E-02
      6 F  30 ZN    9.060039415159E-02  9.306174165555E-03 -7.477730342956E-02
      7 T  30 ZN   -2.570976945233E-01 -2.657277114074E-01 -4.253127111727E-01
      8 F  30 ZN    2.570976945233E-01  2.342722885926E-01  4.253127111727E-01
      9 T  30 ZN    3.801432958483E-01 -3.766094156506E-01  4.727595615579E-01
     10 F  30 ZN   -3.801432958483E-01  1.233905843494E-01 -4.727595615579E-01
     11 T  30 ZN   -3.172239147413E-02  2.591116086783E-01 -4.159195972806E-01
     12 F  30 ZN    3.172239147413E-02 -2.408883913217E-01  4.159195972806E-01
     13 T   8 O     2.751777512818E-01  3.974082762033E-01 -1.461799170114E-01
     14 F   8 O    -2.751777512818E-01 -1.025917237967E-01  1.461799170114E-01
     15 T   6 C     2.210394105729E-01  3.585509264674E-01 -2.404528555876E-01
     16 F   6 C    -2.210394105729E-01 -1.414490735326E-01  2.404528555876E-01
     17 T   1 H     3.186277631711E-01  3.579823088717E-01 -2.959403001323E-01
     18 F   1 H    -3.186277631711E-01 -1.420176911283E-01  2.959403001323E-01
     19 T   8 O     6.723634509828E-02  3.234615150550E-01 -2.701370097438E-01
     20 F   8 O    -6.723634509828E-02 -1.765384849450E-01  2.701370097438E-01
     21 T   8 O     4.740055036486E-01  4.227880047304E-01  5.006164266814E-02
     22 F   8 O    -4.740055036486E-01 -7.721199526962E-02 -5.006164266814E-02
     23 T   6 C    -4.210109093684E-01  4.152773251448E-01  1.433344133310E-01
     24 F   6 C     4.210109093684E-01 -8.472267485516E-02 -1.433344133310E-01
     25 T   1 H    -4.791066535442E-01  3.819773812681E-01  2.099686948035E-01
     26 F   1 H     4.791066535442E-01 -1.180226187319E-01 -2.099686948035E-01
     27 T   8 O    -2.598867330905E-01  4.422863216716E-01  1.645524281953E-01
     28 F   8 O     2.598867330905E-01 -5.771367832835E-02 -1.645524281953E-01
     29 T   8 O     4.869041737208E-01 -4.757812311113E-01 -2.688142776944E-01
     30 F   8 O    -4.869041737208E-01  2.421876888871E-02  2.688142776944E-01
     31 T   6 C    -3.871667133502E-01 -4.339348709029E-01 -3.033001181017E-01
     32 F   6 C     3.871667133502E-01  6.606512909711E-02  3.033001181017E-01
     33 T   1 H    -2.523060472667E-01 -4.299331577945E-01 -2.519130617141E-01
     34 F   1 H     2.523060472667E-01  7.006684220552E-02  2.519130617141E-01
     35 T   8 O    -4.039591578677E-01 -3.934381452511E-01 -3.979023192367E-01
     36 F   8 O     4.039591578677E-01  1.065618547489E-01  3.979023192367E-01
     37 T   8 O     3.330137963120E-01 -3.928039770708E-01 -9.569719647278E-02
     38 F   8 O    -3.330137963120E-01  1.071960229292E-01  9.569719647278E-02
     39 T   6 C     1.978647151190E-01 -3.875736574704E-01 -5.105881460515E-02
     40 F   6 C    -1.978647151190E-01  1.124263425296E-01  5.105881460515E-02
     41 T   1 H     1.244136183473E-01 -3.163845023504E-01 -5.602234065503E-02
     42 F   1 H    -1.244136183473E-01  1.836154976496E-01  5.602234065503E-02
     43 T   8 O     1.376831842922E-01 -4.579486674924E-01  6.948498525925E-04
     44 F   8 O    -1.376831842922E-01  4.205133250760E-02 -6.948498525925E-04
     45 T   8 O    -2.858550507625E-01 -4.203193544258E-01 -3.774512317355E-02
     46 F   8 O     2.858550507625E-01  7.968064557421E-02  3.774512317355E-02
     47 T   6 C    -2.984922800904E-01 -3.253477347020E-01 -5.091627941366E-02
     48 F   6 C     2.984922800904E-01  1.746522652980E-01  5.091627941366E-02
     49 T   1 H    -4.168764627409E-01 -2.985382883719E-01 -1.083956144656E-01
     50 F   1 H     4.168764627409E-01  2.014617116281E-01  1.083956144656E-01
     51 T   8 O    -1.841714572389E-01 -2.659567544797E-01 -1.983652870000E-03
     52 F   8 O     1.841714572389E-01  2.340432455203E-01  1.983652870000E-03
     53 T   8 O     1.290299294215E-01  4.083802068059E-01  1.542261459835E-01
     54 F   8 O    -1.290299294215E-01 -9.161979319412E-02 -1.542261459835E-01
     55 T   6 C     1.460054427027E-01  3.593526430259E-01  2.432344010194E-01
     56 F   6 C    -1.460054427027E-01 -1.406473569741E-01 -2.432344010194E-01
     57 T   1 H     3.632262543379E-02  3.675450999260E-01  2.893031343361E-01
     58 F   1 H    -3.632262543379E-02 -1.324549000740E-01 -2.893031343361E-01
     59 T   8 O     2.780008857244E-01  3.043214574343E-01  2.800899673216E-01
     60 F   8 O    -2.780008857244E-01 -1.956785425657E-01 -2.800899673216E-01
     61 T   8 O    -8.277567576340E-02  3.924273268941E-01 -3.850761279276E-02
     62 F   8 O     8.277567576340E-02 -1.075726731059E-01  3.850761279276E-02
     63 T   6 C    -1.913588361597E-01  3.410334368510E-01 -1.080778311947E-01
     64 F   6 C     1.913588361597E-01 -1.589665631490E-01  1.080778311947E-01
     65 T   1 H    -1.334798558899E-01  2.761426004579E-01 -1.423485119358E-01
     66 F   1 H     1.334798558899E-01 -2.238573995421E-01  1.423485119358E-01
     67 T   8 O    -3.546852212035E-01  3.592766779409E-01 -1.392990646899E-01
     68 F   8 O     3.546852212035E-01 -1.407233220591E-01  1.392990646899E-01
     69 T   8 O    -2.025688258795E-01 -3.284143344835E-01  4.279091242367E-01
     70 F   8 O     2.025688258795E-01  1.715856655165E-01 -4.279091242367E-01
     71 T   6 C    -2.989970537864E-01 -3.876722163726E-01  3.600254401195E-01
     72 F   6 C     2.989970537864E-01  1.123277836274E-01 -3.600254401195E-01
     73 T   1 H    -2.396603458631E-01 -4.121373926757E-01  2.902127339037E-01
     74 F   1 H     2.396603458631E-01  8.786260732425E-02 -2.902127339037E-01
     75 T   8 O    -4.520480441813E-01 -4.194496588567E-01  3.669245178117E-01
     76 F   8 O     4.520480441813E-01  8.055034114332E-02 -3.669245178117E-01
     77 T   8 O    -1.131105563934E-01 -1.521886663815E-01 -4.884881019798E-01
     78 F   8 O     1.131105563934E-01  3.478113336185E-01  4.884881019798E-01
     79 T   6 C    -1.451450571762E-01 -5.880929874000E-02 -4.983881553739E-01
     80 F   6 C     1.451450571762E-01  4.411907012600E-01  4.983881553739E-01
     81 T   1 H    -5.876443481993E-02 -1.627604200898E-02  4.561570565280E-01
     82 F   1 H     5.876443481993E-02  4.837239579910E-01 -4.561570565280E-01
     83 T   8 O    -2.645689063417E-01 -1.649867442886E-02 -4.579580131218E-01
     84 F   8 O     2.645689063417E-01  4.835013255711E-01  4.579580131218E-01
     85 T   8 O     4.820261377537E-01 -2.296979615434E-01  4.914921018483E-01
     86 F   8 O    -4.820261377537E-01  2.703020384566E-01 -4.914921018483E-01
     87 T   6 C     3.961935930612E-01 -1.466751269711E-01  4.862700930211E-01
     88 F   6 C    -3.961935930612E-01  3.533248730289E-01 -4.862700930211E-01
     89 T   1 H     4.770094942060E-01 -8.107908713990E-02 -4.842144549585E-01
     90 F   1 H    -4.770094942060E-01  4.189209128601E-01  4.842144549585E-01
     91 T   8 O     2.319242014211E-01 -1.351121830480E-01  4.507765024878E-01
     92 F   8 O    -2.319242014211E-01  3.648878169520E-01 -4.507765024878E-01
     93 T   8 O     1.702813019943E-01 -3.236589238604E-01 -4.489493512999E-01
     94 F   8 O    -1.702813019943E-01  1.763410761396E-01  4.489493512999E-01
     95 T   6 C     1.251179051254E-01 -3.473694541132E-01 -3.578805583020E-01
     96 F   6 C    -1.251179051254E-01  1.526305458868E-01  3.578805583020E-01
     97 T   1 H     2.268958433664E-01 -3.869757061868E-01 -2.983983729212E-01
     98 F   1 H    -2.268958433664E-01  1.130242938132E-01  2.983983729212E-01
     99 T   8 O    -2.368610344588E-02 -3.292275658312E-01 -3.320644760756E-01
    100 F   8 O     2.368610344588E-02  1.707724341688E-01  3.320644760756E-01
    101 T   8 O     1.857432883584E-01 -3.338808602956E-01  3.373586807002E-01
    102 F   8 O    -1.857432883584E-01  1.661191397044E-01 -3.373586807002E-01
    103 T   6 C     1.412867774784E-01 -3.867974041099E-01  2.511221033167E-01
    104 F   6 C    -1.412867774784E-01  1.132025958901E-01 -2.511221033167E-01
    105 T   1 H     2.498225825177E-01 -4.289863274807E-01  2.247062808414E-01
    106 F   1 H    -2.498225825177E-01  7.101367251928E-02 -2.247062808414E-01
    107 T   8 O    -1.610337593938E-02 -3.916944622941E-01  1.974385498056E-01
    108 F   8 O     1.610337593938E-02  1.083055377059E-01 -1.974385498056E-01

 T = ATOM BELONGING TO THE ASYMMETRIC UNIT
 INFORMATION **** fort.34 **** GEOMETRY OUTPUT FILE

 DIRECT LATTICE VECTORS CARTESIAN COMPONENTS (ANGSTROM)
          X                    Y                    Z
   0.763118632729E+01   0.468763848501E-15   0.450029665057E-01
   0.813760528045E-17   0.135007660742E+02   0.491942790818E-17
  -0.241305711068E+01   0.765676971979E-15   0.122436050207E+02


 CARTESIAN COORDINATES - PRIMITIVE CELL
 *******************************************************************************
 *      ATOM          X(ANGSTROM)         Y(ANGSTROM)         Z(ANGSTROM)
 *******************************************************************************
    1    30 ZN    4.112029286808E+00  6.519233339279E+00 -1.270960140983E+00
    2    30 ZN    3.519157040482E+00 -2.311496978233E-01  1.315963107489E+00
    3    30 ZN    1.513127014564E+00  5.197670083274E+00  4.934402362060E-02
    4    30 ZN   -1.513127014564E+00 -1.552712953828E+00 -4.934402362060E-02
    5    30 ZN   -8.718303928550E-01 -6.624742556647E+00  9.114664812017E-01
    6    30 ZN    8.718303928550E-01  1.256404804550E-01 -9.114664812017E-01
    7    30 ZN   -9.356565492653E-01 -3.587527671144E+00 -5.218931004821E+00
    8    30 ZN    9.356565492653E-01  3.162855365958E+00  5.218931004821E+00
    9    30 ZN    1.760148500028E+00 -5.084515622041E+00  5.805388917489E+00
   10    30 ZN   -1.760148500028E+00  1.665867415061E+00 -5.805388917489E+00
   11    30 ZN    7.615582616034E-01  3.498205215876E+00 -5.093782871196E+00
   12    30 ZN   -7.615582616034E-01 -3.252177821226E+00  5.093782871196E+00
   13     8 O     2.452673181339E+00  5.365316172973E+00 -1.777385350723E+00
   14     8 O    -2.452673181339E+00 -1.385066864129E+00  1.777385350723E+00
   15     6 C     2.267019400716E+00  4.840712183926E+00 -2.934062360725E+00
   16     6 C    -2.267019400716E+00 -1.909670853176E+00  2.934062360725E+00
   17     1 H     3.145628675378E+00  4.833035410780E+00 -3.609036949976E+00
   18     1 H    -3.145628675378E+00 -1.917347626322E+00  3.609036949976E+00
   19     8 O     1.164949109631E+00  4.366978248764E+00 -3.304425013791E+00
   20     8 O    -1.164949109631E+00 -2.383404788337E+00  3.304425013791E+00
   21     8 O     3.496422715691E+00  5.707961950844E+00  6.342666333207E-01
   22     8 O    -3.496422715691E+00 -1.042421086258E+00 -6.342666333207E-01
   23     6 C    -3.558686820506E+00  5.606562022702E+00  1.735983202846E+00
   24     6 C     3.558686820506E+00 -1.143821014400E+00 -1.735983202846E+00
   25     1 H     3.468367731434E+00  5.156987270137E+00  2.594215511711E+00
   26     1 H    -3.468367731434E+00 -1.593395766965E+00 -2.594215511711E+00
   27     8 O    -2.380318491141E+00  5.971204166709E+00  2.003019262077E+00
   28     8 O     2.380318491141E+00 -7.791788703929E-01 -2.003019262077E+00
   29     8 O    -3.266865649848E+00 -6.423411103730E+00 -3.314346674302E+00
   30     8 O     3.266865649848E+00  3.269719333716E-01  3.314346674302E+00
   31     6 C    -2.222660822644E+00 -5.858453183500E+00 -3.730910499404E+00
   32     6 C     2.222660822644E+00  8.919298536022E-01  3.730910499404E+00
   33     1 H    -1.317513853352E+00 -5.804426990927E+00 -3.095678547779E+00
   34     1 H     1.317513853352E+00  9.459560461749E-01  3.095678547779E+00
   35     8 O    -2.122526581513E+00 -5.311716363703E+00 -4.889938194009E+00
   36     8 O     2.122526581513E+00  1.438666673399E+00  4.889938194009E+00
   37     8 O     2.772213129636E+00 -5.303154607450E+00 -1.156692066480E+00
   38     8 O    -2.772213129636E+00  1.447228429652E+00  1.156692066480E+00
   39     6 C     1.633150344315E+00 -5.232541286032E+00 -6.162394597039E-01
   40     6 C    -1.633150344315E+00  1.517841751070E+00  6.162394597039E-01
   41     1 H     1.084608610735E+00 -4.271433155737E+00 -6.803164294164E-01
   42     1 H    -1.084608610735E+00  2.478949881365E+00  6.803164294164E-01
   43     8 O     1.049009321091E+00 -6.182657833808E+00  1.470361887494E-02
   44     8 O    -1.049009321091E+00  5.677252032936E-01 -1.470361887494E-02
   45     8 O    -2.090332017098E+00 -5.674633280563E+00 -4.750007048699E-01
   46     8 O     2.090332017098E+00  1.075749756539E+00  4.750007048699E-01
   47     6 C    -2.154986316539E+00 -4.392443658984E+00 -6.368318523479E-01
   48     6 C     2.154986316539E+00  2.357939378118E+00  6.368318523479E-01
   49     1 H    -2.919697154385E+00 -4.030495595502E+00 -1.345913766983E+00
   50     1 H     2.919697154385E+00  2.719887441600E+00  1.345913766983E+00
   51     8 O    -1.400660038696E+00 -3.590619928085E+00 -3.257532415990E-02
   52     8 O     1.400660038696E+00  3.159763109017E+00  3.257532415990E-02
   53     8 O     6.124949349940E-01  5.513445641421E+00  1.894090744880E+00
   54     8 O    -6.124949349940E-01 -1.236937395681E+00 -1.894090744880E+00
   55     6 C     5.272562371207E-01  4.851535971640E+00  2.984636611577E+00
   56     6 C    -5.272562371207E-01 -1.898847065462E+00 -2.984636611577E+00
   57     1 H    -4.209202628705E-01  4.962140415821E+00  3.543747933959E+00
   58     1 H     4.209202628705E-01 -1.788242621281E+00 -3.543747933959E+00
   59     8 O     1.445603470838E+00  4.108572808181E+00  3.441821794698E+00
   60     8 O    -1.445603470838E+00 -2.641810228921E+00 -3.441821794698E+00
   61     8 O    -5.387555362529E-01  5.298069541523E+00 -4.751971522888E-01
   62     8 O     5.387555362529E-01 -1.452313495579E+00  4.751971522888E-01
   63     6 C    -1.199496955037E+00  4.604212654406E+00 -1.331873991937E+00
   64     6 C     1.199496955037E+00 -2.146170382695E+00  1.331873991937E+00
   65     1 H    -6.751145623143E-01  3.728136651905E+00 -1.748865944912E+00
   66     1 H     6.751145623143E-01 -3.022246385197E+00  1.748865944912E+00
   67     8 O    -2.370532411978E+00  4.850510384797E+00 -1.721484614947E+00
   68     8 O     2.370532411978E+00 -1.899872652305E+00  1.721484614947E+00
   69     8 O    -2.578409609352E+00 -4.433845105277E+00  5.230034103825E+00
   70     8 O     2.578409609352E+00  2.316537931825E+00 -5.230034103825E+00
   71     6 C    -3.150464177061E+00 -5.233871906715E+00  4.394553531833E+00
   72     6 C     3.150464177061E+00  1.516511130387E+00 -4.394553531833E+00
   73     1 H    -2.529192655701E+00 -5.564170528948E+00  3.542464659379E+00
   74     1 H     2.529192655701E+00  1.186212508154E+00 -3.542464659379E+00
   75     8 O     3.296113656467E+00 -5.662891724129E+00  4.517138332015E+00
   76     8 O    -3.296113656467E+00  1.087491312973E+00 -4.517138332015E+00
   77     8 O     3.155819565440E-01 -2.054663583962E+00 -5.985945688537E+00
   78     8 O    -3.155819565440E-01  4.695719453140E+00  5.985945688537E+00
   79     6 C     9.501010640776E-02 -7.939705852767E-01 -6.108599679544E+00
   80     6 C    -9.501010640776E-02  5.956412451825E+00  6.108599679544E+00
   81     1 H    -1.549175380371E+00 -2.197390357772E-01  5.582362253645E+00
   82     1 H     1.549175380371E+00  6.530644001325E+00 -5.582362253645E+00
   83     8 O    -9.138957807436E-01 -2.227447439985E-01 -5.618963414363E+00
   84     8 O     9.138957807436E-01  6.527638293103E+00  5.618963414363E+00
   85     8 O     2.492432760614E+00 -3.101098446519E+00  6.039327771960E+00
   86     8 O    -2.492432760614E+00  3.649284590583E+00 -6.039327771960E+00
   87     6 C     1.850029624652E+00 -1.980226578142E+00  5.971528839331E+00
   88     6 C    -1.850029624652E+00  4.770156458960E+00 -5.971528839331E+00
   89     1 H     2.395528353123E+00 -1.094629788986E+00  6.336541331170E+00
   90     1 H    -2.395528353123E+00  5.655753248116E+00 -6.336541331170E+00
   91     8 O     6.821073501958E-01 -1.824117977106E+00  5.529566726146E+00
   92     8 O    -6.821073501958E-01  4.926265059996E+00 -5.529566726146E+00
   93     8 O     2.382788768062E+00 -4.369643418868E+00 -5.489095367888E+00
   94     8 O    -2.382788768062E+00  2.380739618234E+00  5.489095367888E+00
   95     6 C     1.818384272878E+00 -4.689753741306E+00 -4.376117523546E+00
   96     6 C    -1.818384272878E+00  2.060629295796E+00  4.376117523546E+00
   97     1 H     2.451536773210E+00 -5.224468485628E+00 -3.643260830830E+00
   98     1 H    -2.451536773210E+00  1.525914551474E+00  3.643260830830E+00
   99     8 O     6.205374764360E-01 -4.444824351466E+00 -4.066732231398E+00
  100     8 O    -6.205374764360E-01  2.305558685636E+00  4.066732231398E+00
  101     8 O     6.033758791926E-01 -4.507647391504E+00  4.138845435785E+00
  102     8 O    -6.033758791926E-01  2.242735645598E+00 -4.138845435785E+00
  103     6 C     4.722137474627E-01 -5.222061270997E+00  3.080998169093E+00
  104     6 C    -4.722137474627E-01  1.528321766104E+00 -3.080998169093E+00
  105     1 H     1.364213587158E+00 -5.791644056349E+00  2.762457705608E+00
  106     1 H    -1.364213587158E+00  9.587389807529E-01 -2.762457705608E+00
  107     8 O    -5.993183588229E-01 -5.288175307993E+00  2.416634919994E+00
  108     8 O     5.993183588229E-01  1.462207729109E+00 -2.416634919994E+00

 ****    2 SYMMOPS - TRANSLATORS IN FRACTIONAL UNITS
 **** MATRICES AND TRANSLATORS IN THE CRYSTALLOGRAPHIC REFERENCE FRAME
   V INV                    ROTATION MATRICES                   TRANSLATORS
   1   1  1.00  0.00  0.00  0.00  1.00  0.00  0.00  0.00  1.00  0.00  0.00  0.00
   2   2 -1.00 -0.00  0.00 -0.00  1.00 -0.00  0.00 -0.00 -1.00 -0.00  0.50  0.00
 TTTTTTTTTTTTTTTTTTTTTTTTTTTTTT END         TELAPSE   235649.74 TCPU   232827.41
 EEEEEEEEEE TERMINATION  DATE 27 07 2022 TIME 05:57:28.1
NODE    0 CPU TIME =    232827.411
    TOTAL CPU TIME =  14924412.917
